 Title = "ADflow Slice Data"
Variables =  "CoordinateX"  "CoordinateY"  "CoordinateZ"  "XoC"  "YoC"  "ZoC" "VelocityX" "VelocityY" "VelocityZ" "CoefPressure" "Mach" 
Zone T= "Slice_0001 None Relative Regular z = 0.10000000"
 Nodes =          180  Elements=          174  ZONETYPE=FELINESEG
 DATAPACKING=POINT
  9.740292E-02 -3.184635E-02  1.000000E-01  9.838651E-02 -3.216794E-02  0.000000E+00  1.513948E-02 -1.119595E-03  3.884292E-06 -2.090689E-01  0.000000E+00
  1.118959E-01 -3.286275E-02  1.000000E-01  1.130258E-01 -3.319460E-02  0.000000E+00  1.492186E-02 -9.613645E-04  3.581334E-06 -2.082110E-01  0.000000E+00
  1.281957E-01 -3.382475E-02  1.000000E-01  1.294902E-01 -3.416632E-02  0.000000E+00  1.451306E-02 -7.622807E-04  3.264114E-06 -2.016303E-01  0.000000E+00
  1.464364E-01 -3.467052E-02  1.000000E-01  1.479152E-01 -3.502063E-02  0.000000E+00  1.393013E-02 -5.525221E-04  2.935790E-06 -1.880656E-01  0.000000E+00
  1.667339E-01 -3.534365E-02  1.000000E-01  1.684176E-01 -3.570055E-02  0.000000E+00  1.327617E-02 -3.728726E-04  2.605168E-06 -1.670026E-01  0.000000E+00
  1.891763E-01 -3.586331E-02  1.000000E-01  1.910866E-01 -3.622546E-02  0.000000E+00  1.271406E-02 -2.650231E-04  2.281093E-06 -1.392400E-01  0.000000E+00
  2.138176E-01 -3.632883E-02  1.000000E-01  2.159768E-01 -3.669568E-02  0.000000E+00  1.237544E-02 -2.549110E-04  1.961841E-06 -1.114651E-01  0.000000E+00
  2.406680E-01 -3.693700E-02  1.000000E-01  2.430983E-01 -3.730999E-02  0.000000E+00  1.228910E-02 -3.477501E-04  1.634127E-06 -8.958601E-02  0.000000E+00
  2.696814E-01 -3.793450E-02  1.000000E-01  2.724047E-01 -3.831756E-02  0.000000E+00  1.230995E-02 -4.492201E-04  1.297859E-06 -8.530697E-02  0.000000E+00
  3.007633E-01 -3.916284E-02  1.000000E-01  3.038005E-01 -3.955831E-02  0.000000E+00  1.219533E-02 -4.187737E-04  9.795877E-07 -1.060133E-01  0.000000E+00
  3.337673E-01 -4.013268E-02  1.000000E-01  3.371377E-01 -4.053794E-02  0.000000E+00  1.189336E-02 -3.037053E-04  6.978644E-07 -1.222977E-01  0.000000E+00
  3.684599E-01 -4.087497E-02  1.000000E-01  3.721807E-01 -4.128773E-02  0.000000E+00  1.156321E-02 -2.467430E-04  4.571859E-07 -1.121783E-01  0.000000E+00
  4.045400E-01 -4.165370E-02  1.000000E-01  4.086251E-01 -4.207433E-02  0.000000E+00  1.137800E-02 -2.889122E-04  2.703607E-07 -9.367942E-02  0.000000E+00
  4.416488E-01 -4.275760E-02  1.000000E-01  4.461087E-01 -4.318937E-02  0.000000E+00  1.146427E-02 -4.143476E-04  1.588228E-07 -8.738560E-02  0.000000E+00
  4.793808E-01 -4.437177E-02  1.000000E-01  4.842216E-01 -4.481985E-02  0.000000E+00  1.190169E-02 -6.104015E-04  1.476099E-07 -9.965105E-02  0.000000E+00
  5.172969E-01 -4.663429E-02  1.000000E-01  5.225206E-01 -4.710521E-02  0.000000E+00  1.270193E-02 -8.493165E-04  2.750685E-07 -1.331985E-01  0.000000E+00
  5.549610E-01 -4.942342E-02  1.000000E-01  5.605651E-01 -4.992250E-02  0.000000E+00  1.379657E-02 -1.054078E-03  6.119913E-07 -1.938698E-01  0.000000E+00
  5.919720E-01 -5.235125E-02  1.000000E-01  5.979498E-01 -5.287990E-02  0.000000E+00  1.510533E-02 -1.151421E-03  1.260741E-06 -2.774720E-01  0.000000E+00
  6.279634E-01 -5.501730E-02  1.000000E-01  6.343047E-01 -5.557287E-02  0.000000E+00  1.657551E-02 -1.104853E-03  2.355251E-06 -3.720236E-01  0.000000E+00
  6.626021E-01 -5.711449E-02  1.000000E-01  6.692932E-01 -5.769124E-02  0.000000E+00  1.811369E-02 -8.773028E-04  4.081762E-06 -4.721715E-01  0.000000E+00
  6.955985E-01 -5.836537E-02  1.000000E-01  7.026227E-01 -5.895475E-02  0.000000E+00  1.951270E-02 -4.430821E-04  6.686947E-06 -5.694914E-01  0.000000E+00
  7.267045E-01 -5.865830E-02  1.000000E-01  7.340429E-01 -5.925064E-02  0.000000E+00  2.025192E-02  3.063579E-04  1.044516E-05 -6.656159E-01  0.000000E+00
  7.557134E-01 -5.754518E-02  1.000000E-01  7.633447E-01 -5.812628E-02  0.000000E+00  1.970336E-02  1.342415E-03  1.551123E-05 -7.426186E-01  0.000000E+00
  7.824373E-01 -5.489181E-02  1.000000E-01  7.903385E-01 -5.544611E-02  0.000000E+00  1.754466E-02  2.340083E-03  2.161919E-05 -7.605648E-01  0.000000E+00
  8.067193E-01 -5.068976E-02  1.000000E-01  8.148656E-01 -5.120163E-02  0.000000E+00  1.404362E-02  2.889275E-03  2.805759E-05 -7.028240E-01  0.000000E+00
  8.284994E-01 -4.525109E-02  1.000000E-01  8.368657E-01 -4.570804E-02  0.000000E+00  1.027570E-02  2.749223E-03  3.420187E-05 -5.563613E-01  0.000000E+00
  8.479921E-01 -3.954317E-02  1.000000E-01  8.565553E-01 -3.994249E-02  0.000000E+00  7.225418E-03  2.182951E-03  3.959672E-05 -3.747743E-01  0.000000E+00
  8.654246E-01 -3.409686E-02  1.000000E-01  8.741638E-01 -3.444117E-02  0.000000E+00  5.129553E-03  1.609347E-03  4.422168E-05 -2.367124E-01  0.000000E+00
  8.810065E-01 -2.920715E-02  1.000000E-01  8.899030E-01 -2.950209E-02  0.000000E+00  3.866523E-03  1.192094E-03  4.867451E-05 -1.490863E-01  0.000000E+00
  8.949175E-01 -2.500765E-02  1.000000E-01  9.039545E-01 -2.526018E-02  0.000000E+00  3.243028E-03  9.436740E-04  5.348666E-05 -9.054256E-02  0.000000E+00
  9.073168E-01 -2.154830E-02  1.000000E-01  9.164790E-01 -2.176590E-02  0.000000E+00  3.062648E-03  8.251341E-04  5.874003E-05 -5.214436E-02  0.000000E+00
  9.183132E-01 -1.869938E-02  1.000000E-01  9.275865E-01 -1.888821E-02  0.000000E+00  3.123323E-03  7.862066E-04  6.428660E-05 -3.094882E-02  0.000000E+00
  9.280163E-01 -1.632370E-02  1.000000E-01  9.373876E-01 -1.648854E-02  0.000000E+00  3.275074E-03  7.851198E-04  6.997888E-05 -1.724574E-02  0.000000E+00
  9.365425E-01 -1.432012E-02  1.000000E-01  9.459999E-01 -1.446473E-02  0.000000E+00  3.442739E-03  7.978084E-04  7.560987E-05 -6.043552E-03  0.000000E+00
  9.440089E-01 -1.261477E-02  1.000000E-01  9.535416E-01 -1.274216E-02  0.000000E+00  3.593643E-03  8.135994E-04  8.098879E-05  3.073309E-03  0.000000E+00
  9.505284E-01 -1.115309E-02  1.000000E-01  9.601270E-01 -1.126571E-02  0.000000E+00  3.712500E-03  8.280894E-04  8.601270E-05  1.040087E-02  0.000000E+00
  9.562076E-01 -9.893932E-03  1.000000E-01  9.658635E-01 -9.993842E-03  0.000000E+00  3.795179E-03  8.394343E-04  9.064189E-05  1.661948E-02  0.000000E+00
  9.611446E-01 -8.805673E-03  1.000000E-01  9.708504E-01 -8.894594E-03  0.000000E+00  3.844588E-03  8.473041E-04  9.486137E-05  2.209964E-02  0.000000E+00
  9.654292E-01 -7.862709E-03  1.000000E-01  9.751782E-01 -7.942107E-03  0.000000E+00  3.865699E-03  8.519569E-04  9.866709E-05  2.696945E-02  0.000000E+00
  9.691420E-01 -7.044270E-03  1.000000E-01  9.789285E-01 -7.115404E-03  0.000000E+00  3.864311E-03  8.535691E-04  1.020626E-04  3.143531E-02  0.000000E+00
  9.723554E-01 -6.333885E-03  1.000000E-01  9.821744E-01 -6.397846E-03  0.000000E+00  3.846513E-03  8.524480E-04  1.050522E-04  3.557073E-02  0.000000E+00
  9.751337E-01 -5.717410E-03  1.000000E-01  9.849808E-01 -5.775145E-03  0.000000E+00  3.817133E-03  8.489265E-04  1.076520E-04  3.937626E-02  0.000000E+00
  9.775338E-01 -5.183020E-03  1.000000E-01  9.874051E-01 -5.235359E-03  0.000000E+00  3.779722E-03  8.436249E-04  1.099228E-04  4.291243E-02  0.000000E+00
  9.796057E-01 -4.720082E-03  1.000000E-01  9.894979E-01 -4.767747E-03  0.000000E+00  3.735530E-03  8.374311E-04  1.120015E-04  4.608316E-02  0.000000E+00
  9.813928E-01 -4.318650E-03  1.000000E-01  9.913031E-01 -4.362260E-03  0.000000E+00  3.685382E-03  8.304917E-04  1.140860E-04  4.896344E-02  0.000000E+00
  9.829335E-01 -3.970744E-03  1.000000E-01  9.928593E-01 -4.010841E-03  0.000000E+00  3.633605E-03  8.227122E-04  1.162571E-04  5.173822E-02  0.000000E+00
  9.842612E-01 -3.669726E-03  1.000000E-01  9.942004E-01 -3.706784E-03  0.000000E+00  3.581118E-03  8.134726E-04  1.181306E-04  5.438984E-02  0.000000E+00
  9.854050E-01 -3.409757E-03  1.000000E-01  9.953557E-01 -3.444189E-03  0.000000E+00  3.510191E-03  7.990947E-04  1.186019E-04  5.696261E-02  0.000000E+00
  9.863900E-01 -3.185560E-03  1.000000E-01  9.963507E-01 -3.217728E-03  0.000000E+00  3.369588E-03  7.686762E-04  1.161516E-04  5.941071E-02  0.000000E+00
  9.872379E-01 -2.992044E-03  1.000000E-01  9.972072E-01 -3.022259E-03  0.000000E+00  3.084138E-03  7.048315E-04  1.100422E-04  6.203858E-02  0.000000E+00
  9.879677E-01 -2.824784E-03  1.000000E-01  9.979443E-01 -2.853310E-03  0.000000E+00  2.589162E-03  5.993745E-04  1.019156E-04  6.527772E-02  0.000000E+00
  9.885955E-01 -2.680326E-03  1.000000E-01  9.985785E-01 -2.707393E-03  0.000000E+00  1.775702E-03  4.237033E-04  9.644841E-05  6.453628E-02  0.000000E+00
  9.891357E-01 -2.555786E-03  1.000000E-01  9.991241E-01 -2.581595E-03  0.000000E+00  9.894286E-04  1.462004E-04  1.006843E-04  6.616109E-02  0.000000E+00
  9.896003E-01 -2.448564E-03  1.000000E-01  9.995935E-01 -2.473290E-03  0.000000E+00  2.305623E-03  7.137278E-04  1.222141E-04  1.204315E-01  0.000000E+00
  9.900000E-01 -2.356343E-03  1.000000E-01  9.999972E-01 -2.380138E-03  0.000000E+00  2.217858E-03  7.913494E-04  1.601970E-04  1.965927E-02  0.000000E+00
  9.900000E-01 -6.044725E-04  1.000000E-01  9.999972E-01 -6.105766E-04  0.000000E+00  7.750640E-06 -1.464616E-03  3.940567E-04  1.910451E-02  0.000000E+00
  9.900000E-01 -1.042440E-03  1.000000E-01  9.999972E-01 -1.052967E-03  0.000000E+00  3.054405E-05 -2.490722E-03  3.485252E-04  2.635816E-02  0.000000E+00
  9.900000E-01 -1.480408E-03  1.000000E-01  9.999972E-01 -1.495357E-03  0.000000E+00 -1.280644E-04 -4.199164E-03  2.891426E-04  3.976161E-02  0.000000E+00
  9.900000E-01 -1.918376E-03  1.000000E-01  9.999972E-01 -1.937748E-03  0.000000E+00  1.179934E-04 -2.515587E-03  2.196769E-04 -4.349802E-02  0.000000E+00
  9.900000E-01 -2.356343E-03  1.000000E-01  9.999972E-01 -2.380138E-03  0.000000E+00  2.217858E-03  7.913494E-04  1.601970E-04  1.965927E-02  0.000000E+00
  9.900000E-01  1.147398E-03  1.000000E-01  9.999972E-01  1.158985E-03  0.000000E+00  1.098892E-04 -5.957930E-04  4.286370E-04  3.808642E-02  0.000000E+00
  9.900000E-01  7.094306E-04  1.000000E-01  9.999972E-01  7.165945E-04  0.000000E+00  4.165449E-05 -7.014591E-04  4.315538E-04  1.021420E-02  0.000000E+00
  9.900000E-01  2.714629E-04  1.000000E-01  9.999972E-01  2.742041E-04  0.000000E+00 -1.846010E-05 -4.690131E-04  4.300678E-04  2.128284E-02  0.000000E+00
  9.900000E-01 -1.665048E-04  1.000000E-01  9.999972E-01 -1.681862E-04  0.000000E+00 -2.448400E-06 -8.820929E-04  4.201387E-04  2.247739E-02  0.000000E+00
  3.986377E-03 -1.185003E-02  1.000000E-01  4.026632E-03 -1.196969E-02  0.000000E+00  2.433548E-02 -3.473855E-02  8.403269E-06 -3.211268E-02  0.000000E+00
  4.244939E-03 -1.216843E-02  1.000000E-01  4.287805E-03 -1.229131E-02  0.000000E+00  2.304300E-02 -2.895707E-02  8.013206E-06 -2.215929E-01  0.000000E+00
  4.545351E-03 -1.253877E-02  1.000000E-01  4.591251E-03 -1.266539E-02  0.000000E+00  1.817343E-02 -2.219866E-02  7.691871E-06 -1.421890E-01  0.000000E+00
  4.894851E-03 -1.296904E-02  1.000000E-01  4.944280E-03 -1.310000E-02  0.000000E+00  1.869967E-02 -2.294100E-02  7.372855E-06 -1.102652E-01  0.000000E+00
  5.301639E-03 -1.346864E-02  1.000000E-01  5.355175E-03 -1.360465E-02  0.000000E+00  2.177213E-02 -2.698735E-02  7.062841E-06 -1.464581E-01  0.000000E+00
  5.769073E-03 -1.405342E-02  1.000000E-01  5.827330E-03 -1.419534E-02  0.000000E+00  2.461003E-02 -2.886621E-02  6.771987E-06 -2.454815E-01  0.000000E+00
  6.351389E-03 -1.469899E-02  1.000000E-01  6.415526E-03 -1.484742E-02  0.000000E+00  2.541467E-02 -2.637381E-02  6.538828E-06 -3.925135E-01  0.000000E+00
  7.080148E-03 -1.539836E-02  1.000000E-01  7.151644E-03 -1.555386E-02  0.000000E+00  2.525429E-02 -2.412794E-02  6.439626E-06 -4.378009E-01  0.000000E+00
  7.931269E-03 -1.620530E-02  1.000000E-01  8.011360E-03 -1.636894E-02  0.000000E+00  2.718269E-02 -2.496628E-02  6.379222E-06 -4.498600E-01  0.000000E+00
  8.940505E-03 -1.711792E-02  1.000000E-01  9.030787E-03 -1.729078E-02  0.000000E+00  2.944282E-02 -2.410105E-02  6.226007E-06 -6.347920E-01  0.000000E+00
  1.021478E-02 -1.805045E-02  1.000000E-01  1.031793E-02 -1.823272E-02  0.000000E+00  3.063341E-02 -2.228915E-02  6.091572E-06 -7.415751E-01  0.000000E+00
  1.169701E-02 -1.912597E-02  1.000000E-01  1.181512E-02 -1.931911E-02  0.000000E+00  3.061918E-02 -1.935002E-02  5.949890E-06 -8.533126E-01  0.000000E+00
  1.356474E-02 -2.013074E-02  1.000000E-01  1.370172E-02 -2.033402E-02  0.000000E+00  2.903990E-02 -1.501079E-02  5.835676E-06 -9.545651E-01  0.000000E+00
  1.577025E-02 -2.121560E-02  1.000000E-01  1.592950E-02 -2.142984E-02  0.000000E+00  2.627966E-02 -1.113173E-02  5.826325E-06 -9.524394E-01  0.000000E+00
  1.845492E-02 -2.215596E-02  1.000000E-01  1.864128E-02 -2.237969E-02  0.000000E+00  2.262561E-02 -7.269629E-03  5.876339E-06 -9.334918E-01  0.000000E+00
  2.161757E-02 -2.305108E-02  1.000000E-01  2.183587E-02 -2.328385E-02  0.000000E+00  1.982902E-02 -5.068106E-03  5.966265E-06 -7.852821E-01  0.000000E+00
  2.532244E-02 -2.389920E-02  1.000000E-01  2.557815E-02 -2.414053E-02  0.000000E+00  1.838494E-02 -3.873064E-03  5.963407E-06 -6.503079E-01  0.000000E+00
  2.962939E-02 -2.472875E-02  1.000000E-01  2.992860E-02 -2.497847E-02  0.000000E+00  1.785037E-02 -3.268899E-03  5.862959E-06 -5.404400E-01  0.000000E+00
  3.460860E-02 -2.559783E-02  1.000000E-01  3.495809E-02 -2.585632E-02  0.000000E+00  1.771454E-02 -2.921761E-03  5.687217E-06 -4.629790E-01  0.000000E+00
  4.035433E-02 -2.649757E-02  1.000000E-01  4.076184E-02 -2.676515E-02  0.000000E+00  1.748754E-02 -2.556536E-03  5.461538E-06 -4.183591E-01  0.000000E+00
  4.697305E-02 -2.739983E-02  1.000000E-01  4.744740E-02 -2.767651E-02  0.000000E+00  1.697473E-02 -2.124087E-03  5.213875E-06 -3.838778E-01  0.000000E+00
  5.458066E-02 -2.826760E-02  1.000000E-01  5.513182E-02 -2.855305E-02  0.000000E+00  1.629690E-02 -1.706022E-03  4.960460E-06 -3.438810E-01  0.000000E+00
  6.329763E-02 -2.910011E-02  1.000000E-01  6.393682E-02 -2.939396E-02  0.000000E+00  1.569244E-02 -1.398739E-03  4.705268E-06 -2.976619E-01  0.000000E+00
  7.325102E-02 -2.992755E-02  1.000000E-01  7.399072E-02 -3.022976E-02  0.000000E+00  1.533872E-02 -1.251128E-03  4.444563E-06 -2.518465E-01  0.000000E+00
  8.457170E-02 -3.084047E-02  1.000000E-01  8.542572E-02 -3.115190E-02  0.000000E+00  1.522177E-02 -1.202920E-03  4.172279E-06 -2.190433E-01  0.000000E+00
  9.740292E-02 -3.184635E-02  1.000000E-01  9.838651E-02 -3.216794E-02  0.000000E+00  1.513948E-02 -1.119595E-03  3.884292E-06 -2.090689E-01  0.000000E+00
  3.986377E-03  1.420684E-02  1.000000E-01  4.026632E-03  1.435030E-02  0.000000E+00  3.849884E-03  7.706522E-03  7.339377E-06  9.647717E-01  0.000000E+00
  2.433975E-03  1.082517E-02  1.000000E-01  2.458554E-03  1.093449E-02  0.000000E+00  2.076892E-03  4.853063E-03  7.153959E-06  1.023605E+00  0.000000E+00
  1.187848E-03  7.320731E-03  1.000000E-01  1.199843E-03  7.394657E-03  0.000000E+00  3.293138E-04  7.009109E-04  6.803118E-06  1.038106E+00  0.000000E+00
  3.367602E-04  3.701772E-03  1.000000E-01  3.401609E-04  3.739153E-03  0.000000E+00 -5.202830E-04 -4.536404E-03  6.572261E-06  1.034041E+00  0.000000E+00
  0.000000E+00  0.000000E+00  1.000000E-01  0.000000E+00  0.000000E+00  0.000000E+00  2.289134E-04 -1.071481E-02  6.526902E-06  9.371166E-01  0.000000E+00
  2.551396E-04 -3.164551E-03  1.000000E-01  2.577161E-04 -3.196507E-03  0.000000E+00  3.228913E-03 -1.742186E-02  6.790755E-06  7.566080E-01  0.000000E+00
  1.044180E-03 -6.239673E-03  1.000000E-01  1.054725E-03 -6.302682E-03  0.000000E+00  8.874630E-03 -2.458148E-02  7.447815E-06  5.511686E-01  0.000000E+00
  2.319703E-03 -9.146945E-03  1.000000E-01  2.343128E-03 -9.239312E-03  0.000000E+00  1.701198E-02 -3.158776E-02  8.242633E-06  3.141201E-01  0.000000E+00
  3.986377E-03 -1.185003E-02  1.000000E-01  4.026632E-03 -1.196969E-02  0.000000E+00  2.433548E-02 -3.473855E-02  8.403269E-06 -3.211268E-02  0.000000E+00
  8.879982E-01  1.382582E-02  1.000000E-01  8.969653E-01  1.396543E-02  0.000000E+00 -6.376954E-03  1.347149E-03  2.940653E-04 -1.882588E-01  0.000000E+00
  8.731002E-01  1.724836E-02  1.000000E-01  8.819169E-01  1.742253E-02  0.000000E+00 -6.277526E-03  1.548307E-03  2.771882E-04 -2.099821E-01  0.000000E+00
  8.564920E-01  2.164177E-02  1.000000E-01  8.651410E-01  2.186031E-02  0.000000E+00 -5.866247E-03  1.642886E-03  2.483943E-04 -2.273432E-01  0.000000E+00
  8.380769E-01  2.711847E-02  1.000000E-01  8.465399E-01  2.739231E-02  0.000000E+00 -5.136103E-03  1.595114E-03  2.067119E-04 -2.346865E-01  0.000000E+00
  8.177639E-01  3.374777E-02  1.000000E-01  8.260218E-01  3.408856E-02  0.000000E+00 -4.188594E-03  1.409381E-03  1.549810E-04 -2.290036E-01  0.000000E+00
  7.954680E-01  4.154091E-02  1.000000E-01  8.035008E-01  4.196040E-02  0.000000E+00 -3.199805E-03  1.140445E-03  9.927942E-05 -2.106271E-01  0.000000E+00
  7.711155E-01  5.044843E-02  1.000000E-01  7.789024E-01  5.095787E-02  0.000000E+00 -2.346934E-03  8.727897E-04  4.633899E-05 -1.828819E-01  0.000000E+00
  7.447045E-01  6.049430E-02  1.000000E-01  7.522247E-01  6.110518E-02  0.000000E+00 -1.744995E-03  6.747036E-04  8.544251E-07 -1.513921E-01  0.000000E+00
  7.162967E-01  7.171481E-02  1.000000E-01  7.235300E-01  7.243900E-02  0.000000E+00 -1.418181E-03  5.696781E-04 -3.578997E-05 -1.218142E-01  0.000000E+00
  6.860005E-01  8.409181E-02  1.000000E-01  6.929279E-01  8.494098E-02  0.000000E+00 -1.299256E-03  5.361035E-04 -6.520353E-05 -9.761701E-02  0.000000E+00
  6.539050E-01  9.738223E-02  1.000000E-01  6.605082E-01  9.836561E-02  0.000000E+00 -1.229497E-03  5.037049E-04 -9.039214E-05 -8.728128E-02  0.000000E+00
  6.200451E-01  1.110312E-01  1.000000E-01  6.263064E-01  1.121524E-01  0.000000E+00 -9.130577E-04  3.556559E-04 -1.133425E-04 -1.191251E-01  0.000000E+00
  5.844910E-01  1.243461E-01  1.000000E-01  5.903933E-01  1.256018E-01  0.000000E+00  1.465294E-04 -3.767201E-05 -1.328028E-04 -2.349347E-01  0.000000E+00
  5.473655E-01  1.364683E-01  1.000000E-01  5.528928E-01  1.378463E-01  0.000000E+00  2.570581E-03 -6.933495E-04 -1.440256E-04 -4.391374E-01  0.000000E+00
  5.088892E-01  1.463491E-01  1.000000E-01  5.140280E-01  1.478269E-01  0.000000E+00  6.715346E-03 -1.335139E-03 -1.410047E-04 -6.708052E-01  0.000000E+00
  4.695271E-01  1.531629E-01  1.000000E-01  4.742684E-01  1.547096E-01  0.000000E+00  1.205933E-02 -1.489460E-03 -1.200219E-04 -8.611880E-01  0.000000E+00
  4.299753E-01  1.568326E-01  1.000000E-01  4.343173E-01  1.584163E-01  0.000000E+00  1.714882E-02 -9.278182E-04 -8.553016E-05 -9.842062E-01  0.000000E+00
  3.909358E-01  1.577662E-01  1.000000E-01  3.948836E-01  1.593594E-01  0.000000E+00  2.067804E-02  1.412922E-04 -5.060847E-05 -1.044182E+00  0.000000E+00
  3.529965E-01  1.564439E-01  1.000000E-01  3.565611E-01  1.580236E-01  0.000000E+00  2.241493E-02  1.353223E-03 -2.610707E-05 -1.062123E+00  0.000000E+00
  3.166269E-01  1.533128E-01  1.000000E-01  3.198243E-01  1.548610E-01  0.000000E+00  2.291019E-02  2.472733E-03 -1.331372E-05 -1.063637E+00  0.000000E+00
  2.821855E-01  1.488051E-01  1.000000E-01  2.850351E-01  1.503077E-01  0.000000E+00  2.291748E-02  3.537187E-03 -7.766419E-06 -1.038785E+00  0.000000E+00
  2.499695E-01  1.430716E-01  1.000000E-01  2.524937E-01  1.445164E-01  0.000000E+00  2.294872E-02  4.708539E-03 -5.104611E-06 -9.532091E-01  0.000000E+00
  2.202280E-01  1.361318E-01  1.000000E-01  2.224519E-01  1.375064E-01  0.000000E+00  2.282824E-02  5.648090E-03 -3.021880E-06 -8.790699E-01  0.000000E+00
  1.929094E-01  1.289139E-01  1.000000E-01  1.948574E-01  1.302157E-01  0.000000E+00  2.247475E-02  6.279336E-03 -8.935231E-07 -8.843414E-01  0.000000E+00
  1.680459E-01  1.215624E-01  1.000000E-01  1.697428E-01  1.227900E-01  0.000000E+00  2.231194E-02  7.390562E-03  1.059668E-06 -8.626122E-01  0.000000E+00
  1.458739E-01  1.134442E-01  1.000000E-01  1.473470E-01  1.145898E-01  0.000000E+00  2.219263E-02  9.087861E-03  2.617584E-06 -7.139158E-01  0.000000E+00
  1.264209E-01  1.046118E-01  1.000000E-01  1.276975E-01  1.056682E-01  0.000000E+00  2.147028E-02  1.023309E-02  3.757115E-06 -5.078411E-01  0.000000E+00
  1.092562E-01  9.598206E-02  1.000000E-01  1.103595E-01  9.695130E-02  0.000000E+00  2.008397E-02  1.015309E-02  4.515081E-06 -3.653236E-01  0.000000E+00
  9.395590E-02  8.816941E-02  1.000000E-01  9.490468E-02  8.905976E-02  0.000000E+00  1.859726E-02  9.612752E-03  4.950420E-06 -3.018085E-01  0.000000E+00
  8.041756E-02  8.107283E-02  1.000000E-01  8.122963E-02  8.189152E-02  0.000000E+00  1.745136E-02  9.601480E-03  5.181436E-06 -2.435966E-01  0.000000E+00
  6.869072E-02  7.430357E-02  1.000000E-01  6.938436E-02  7.505390E-02  0.000000E+00  1.658867E-02  1.012744E-02  5.326078E-06 -1.423987E-01  0.000000E+00
  5.865695E-02  6.781521E-02  1.000000E-01  5.924927E-02  6.850002E-02  0.000000E+00  1.571097E-02  1.048130E-02  5.415207E-06 -3.605208E-02  0.000000E+00
  5.001002E-02  6.184419E-02  1.000000E-01  5.051503E-02  6.246870E-02  0.000000E+00  1.472268E-02  1.044034E-02  5.424932E-06  4.927962E-02  0.000000E+00
  4.256841E-02  5.641265E-02  1.000000E-01  4.299827E-02  5.698231E-02  0.000000E+00  1.367794E-02  1.029533E-02  5.344186E-06  1.252707E-01  0.000000E+00
  3.621103E-02  5.146451E-02  1.000000E-01  3.657669E-02  5.198421E-02  0.000000E+00  1.263723E-02  1.022419E-02  5.192339E-06  1.981984E-01  0.000000E+00
  3.083685E-02  4.693541E-02  1.000000E-01  3.114825E-02  4.740937E-02  0.000000E+00  1.163371E-02  1.024999E-02  5.012146E-06  2.798036E-01  0.000000E+00
  2.634168E-02  4.278491E-02  1.000000E-01  2.660769E-02  4.321696E-02  0.000000E+00  1.067129E-02  1.024246E-02  4.842967E-06  3.654436E-01  0.000000E+00
  2.258595E-02  3.902239E-02  1.000000E-01  2.281403E-02  3.941644E-02  0.000000E+00  9.790859E-03  1.012613E-02  4.707069E-06  4.392148E-01  0.000000E+00
  1.943359E-02  3.565247E-02  1.000000E-01  1.962983E-02  3.601249E-02  0.000000E+00  8.957443E-03  9.985486E-03  4.622738E-06  5.185751E-01  0.000000E+00
  1.682991E-02  3.261653E-02  1.000000E-01  1.699986E-02  3.294590E-02  0.000000E+00  8.154316E-03  9.702907E-03  4.591428E-06  5.928751E-01  0.000000E+00
  1.463412E-02  2.994032E-02  1.000000E-01  1.478189E-02  3.024266E-02  0.000000E+00  7.459280E-03  9.279631E-03  4.599504E-06  6.474620E-01  0.000000E+00
  1.278284E-02  2.758749E-02  1.000000E-01  1.291192E-02  2.786607E-02  0.000000E+00  6.855070E-03  8.888007E-03  4.633423E-06  6.989613E-01  0.000000E+00
  1.122449E-02  2.552335E-02  1.000000E-01  1.133783E-02  2.578109E-02  0.000000E+00  6.309264E-03  8.509896E-03  4.683209E-06  7.442516E-01  0.000000E+00
  9.913652E-03  2.371525E-02  1.000000E-01  1.001376E-02  2.395473E-02  0.000000E+00  5.900023E-03  8.213102E-03  4.740916E-06  7.720693E-01  0.000000E+00
  8.794942E-03  2.214645E-02  1.000000E-01  8.883755E-03  2.237009E-02  0.000000E+00  5.520439E-03  8.064786E-03  4.813054E-06  8.066095E-01  0.000000E+00
  7.883306E-03  2.075732E-02  1.000000E-01  7.962913E-03  2.096693E-02  0.000000E+00  5.097415E-03  7.791146E-03  4.906094E-06  8.420327E-01  0.000000E+00
  7.103929E-03  1.955576E-02  1.000000E-01  7.175665E-03  1.975324E-02  0.000000E+00  4.852258E-03  7.501114E-03  5.022945E-06  8.538102E-01  0.000000E+00
  6.434102E-03  1.851949E-02  1.000000E-01  6.499074E-03  1.870650E-02  0.000000E+00  4.730524E-03  7.574124E-03  5.179441E-06  8.692904E-01  0.000000E+00
  5.884032E-03  1.761029E-02  1.000000E-01  5.943449E-03  1.778812E-02  0.000000E+00  4.472914E-03  7.692021E-03  5.396440E-06  8.950334E-01  0.000000E+00
  5.439229E-03  1.681069E-02  1.000000E-01  5.494155E-03  1.698045E-02  0.000000E+00  4.195863E-03  7.536000E-03  5.697791E-06  9.120206E-01  0.000000E+00
  5.056159E-03  1.612252E-02  1.000000E-01  5.107217E-03  1.628533E-02  0.000000E+00  4.089353E-03  7.339277E-03  6.093468E-06  9.207794E-01  0.000000E+00
  4.725238E-03  1.553100E-02  1.000000E-01  4.772954E-03  1.568784E-02  0.000000E+00  4.037868E-03  7.224646E-03  6.550727E-06  9.314386E-01  0.000000E+00
  4.441169E-03  1.502170E-02  1.000000E-01  4.486017E-03  1.517339E-02  0.000000E+00  4.090409E-03  7.282066E-03  6.985128E-06  9.337073E-01  0.000000E+00
  4.196704E-03  1.458361E-02  1.000000E-01  4.239083E-03  1.473088E-02  0.000000E+00  4.388973E-03  8.068245E-03  7.259578E-06  9.216143E-01  0.000000E+00
  3.986377E-03  1.420684E-02  1.000000E-01  4.026632E-03  1.435030E-02  0.000000E+00  3.849884E-03  7.706522E-03  7.339377E-06  9.647717E-01  0.000000E+00
  9.900000E-01  1.147398E-03  1.000000E-01  9.999972E-01  1.158985E-03  0.000000E+00  1.098892E-04 -5.957930E-04  4.286370E-04  3.808642E-02  0.000000E+00
  9.895710E-01  1.193754E-03  1.000000E-01  9.995638E-01  1.205809E-03  0.000000E+00 -4.889716E-04  1.680555E-05  4.137383E-04  5.706833E-02  0.000000E+00
  9.890722E-01  1.247647E-03  1.000000E-01  9.990600E-01  1.260246E-03  0.000000E+00 -1.042682E-03  1.400473E-04  3.920456E-04  3.877619E-02  0.000000E+00
  9.884924E-01  1.310108E-03  1.000000E-01  9.984743E-01  1.323338E-03  0.000000E+00 -9.563325E-04  9.955874E-05  3.769521E-04  3.937857E-02  0.000000E+00
  9.878185E-01  1.382185E-03  1.000000E-01  9.977936E-01  1.396143E-03  0.000000E+00 -9.564568E-04  1.006911E-04  3.675590E-04  4.075315E-02  0.000000E+00
  9.870352E-01  1.464903E-03  1.000000E-01  9.970024E-01  1.479695E-03  0.000000E+00 -1.088747E-03  1.155119E-04  3.620851E-04  3.973063E-02  0.000000E+00
  9.861251E-01  1.559828E-03  1.000000E-01  9.960832E-01  1.575580E-03  0.000000E+00 -1.278907E-03  1.334743E-04  3.588826E-04  3.859321E-02  0.000000E+00
  9.850681E-01  1.669392E-03  1.000000E-01  9.950154E-01  1.686250E-03  0.000000E+00 -1.513796E-03  1.567924E-04  3.563723E-04  3.713611E-02  0.000000E+00
  9.838406E-01  1.795993E-03  1.000000E-01  9.937756E-01  1.814129E-03  0.000000E+00 -1.779971E-03  1.829223E-04  3.534528E-04  3.503392E-02  0.000000E+00
  9.824158E-01  1.941576E-03  1.000000E-01  9.923364E-01  1.961183E-03  0.000000E+00 -2.062562E-03  2.093383E-04  3.495805E-04  3.219553E-02  0.000000E+00
  9.807625E-01  2.108191E-03  1.000000E-01  9.906664E-01  2.129480E-03  0.000000E+00 -2.351020E-03  2.348123E-04  3.446343E-04  2.847254E-02  0.000000E+00
  9.788450E-01  2.298146E-03  1.000000E-01  9.887295E-01  2.321353E-03  0.000000E+00 -2.638117E-03  2.593425E-04  3.387209E-04  2.372866E-02  0.000000E+00
  9.766222E-01  2.515174E-03  1.000000E-01  9.864843E-01  2.540573E-03  0.000000E+00 -2.919849E-03  2.834577E-04  3.320302E-04  1.789649E-02  0.000000E+00
  9.740474E-01  2.764032E-03  1.000000E-01  9.838835E-01  2.791944E-03  0.000000E+00 -3.193622E-03  3.066072E-04  3.248060E-04  1.076525E-02  0.000000E+00
  9.710671E-01  3.048775E-03  1.000000E-01  9.808731E-01  3.079562E-03  0.000000E+00 -3.457497E-03  3.282639E-04  3.174479E-04  2.165185E-03  0.000000E+00
  9.676203E-01  3.374567E-03  1.000000E-01  9.773915E-01  3.408644E-03  0.000000E+00 -3.713304E-03  3.493078E-04  3.105924E-04 -7.938631E-03  0.000000E+00
  9.636381E-01  3.748150E-03  1.000000E-01  9.733691E-01  3.786000E-03  0.000000E+00 -3.967155E-03  3.715666E-04  3.050292E-04 -1.964154E-02  0.000000E+00
  9.590430E-01  4.178649E-03  1.000000E-01  9.687276E-01  4.220845E-03  0.000000E+00 -4.227047E-03  3.979858E-04  3.014429E-04 -3.292671E-02  0.000000E+00
  9.537483E-01  4.680452E-03  1.000000E-01  9.633793E-01  4.727716E-03  0.000000E+00 -4.499389E-03  4.316651E-04  3.000874E-04 -4.781371E-02  0.000000E+00
  9.476575E-01  5.272787E-03  1.000000E-01  9.572270E-01  5.326033E-03  0.000000E+00 -4.786182E-03  4.758710E-04  3.006532E-04 -6.436955E-02  0.000000E+00
  9.406647E-01  5.983959E-03  1.000000E-01  9.501637E-01  6.044386E-03  0.000000E+00 -5.085676E-03  5.355537E-04  3.023594E-04 -8.249527E-02  0.000000E+00
  9.326552E-01  6.856437E-03  1.000000E-01  9.420733E-01  6.925674E-03  0.000000E+00 -5.394964E-03  6.178145E-04  3.042650E-04 -1.019789E-01  0.000000E+00
  9.235071E-01  7.954336E-03  1.000000E-01  9.328328E-01  8.034661E-03  0.000000E+00 -5.708318E-03  7.320462E-04  3.055421E-04 -1.226894E-01  0.000000E+00
  9.130944E-01  9.374004E-03  1.000000E-01  9.223150E-01  9.468664E-03  0.000000E+00 -6.006972E-03  8.901993E-04  3.053121E-04 -1.447649E-01  0.000000E+00
  9.012940E-01  1.125847E-02  1.000000E-01  9.103954E-01  1.137216E-02  0.000000E+00 -6.252738E-03  1.103990E-03  3.022773E-04 -1.666968E-01  0.000000E+00
  8.879982E-01  1.382582E-02  1.000000E-01  8.969653E-01  1.396543E-02  0.000000E+00 -6.376954E-03  1.347149E-03  2.940653E-04 -1.882588E-01  0.000000E+00
    1    2
    2    3
    3    4
    4    5
    5    6
    6    7
    7    8
    8    9
    9   10
   10   11
   11   12
   12   13
   13   14
   14   15
   15   16
   16   17
   17   18
   18   19
   19   20
   20   21
   21   22
   22   23
   23   24
   24   25
   25   26
   26   27
   27   28
   28   29
   29   30
   30   31
   31   32
   32   33
   33   34
   34   35
   35   36
   36   37
   37   38
   38   39
   39   40
   40   41
   41   42
   42   43
   43   44
   44   45
   45   46
   46   47
   47   48
   48   49
   49   50
   50   51
   51   52
   52   53
   53   54
   54   55
   56   57
   57   58
   58   59
   59   60
   61   62
   62   63
   63   64
   64   56
   65   66
   66   67
   67   68
   68   69
   69   70
   70   71
   71   72
   72   73
   73   74
   74   75
   75   76
   76   77
   77   78
   78   79
   79   80
   80   81
   81   82
   82   83
   83   84
   84   85
   85   86
   86   87
   87   88
   88   89
   89   90
   91   92
   92   93
   93   94
   94   95
   95   96
   96   97
   97   98
   98   99
  100  101
  101  102
  102  103
  103  104
  104  105
  105  106
  106  107
  107  108
  108  109
  109  110
  110  111
  111  112
  112  113
  113  114
  114  115
  115  116
  116  117
  117  118
  118  119
  119  120
  120  121
  121  122
  122  123
  123  124
  124  125
  125  126
  126  127
  127  128
  128  129
  129  130
  130  131
  131  132
  132  133
  133  134
  134  135
  135  136
  136  137
  137  138
  138  139
  139  140
  140  141
  141  142
  142  143
  143  144
  144  145
  145  146
  146  147
  147  148
  148  149
  149  150
  150  151
  151  152
  152  153
  153  154
  155  156
  156  157
  157  158
  158  159
  159  160
  160  161
  161  162
  162  163
  163  164
  164  165
  165  166
  166  167
  167  168