 Title = "ADflow Slice Data"
Variables =  "CoordinateX"  "CoordinateY"  "CoordinateZ"  "XoC"  "YoC"  "ZoC" "VelocityX" "VelocityY" "VelocityZ" "CoefPressure" "Mach" 
Zone T= "Slice_0001 None Relative Regular z = 0.10000000"
 Nodes =          180  Elements=          174  ZONETYPE=FELINESEG
 DATAPACKING=POINT
  1.049440E-01 -3.343516E-02  1.000000E-01  1.060038E-01 -3.377280E-02  0.000000E+00  2.267600E-02 -2.412096E-03  9.213370E-06 -4.419730E-02  0.000000E+00
  1.192180E-01 -3.485810E-02  1.000000E-01  1.204219E-01 -3.521011E-02  0.000000E+00  2.232297E-02 -2.093714E-03  9.319674E-06 -5.938860E-02  0.000000E+00
  1.352772E-01 -3.627652E-02  1.000000E-01  1.366433E-01 -3.664286E-02  0.000000E+00  2.191989E-02 -1.814450E-03  9.435456E-06 -6.795539E-02  0.000000E+00
  1.532523E-01 -3.767563E-02  1.000000E-01  1.547999E-01 -3.805609E-02  0.000000E+00  2.154019E-02 -1.586854E-03  9.546905E-06 -7.353746E-02  0.000000E+00
  1.732552E-01 -3.907816E-02  1.000000E-01  1.750048E-01 -3.947278E-02  0.000000E+00  2.121899E-02 -1.408544E-03  9.648122E-06 -7.922098E-02  0.000000E+00
  1.953756E-01 -4.047896E-02  1.000000E-01  1.973486E-01 -4.088773E-02  0.000000E+00  2.094590E-02 -1.256493E-03  9.739582E-06 -8.760084E-02  0.000000E+00
  2.196703E-01 -4.186887E-02  1.000000E-01  2.218886E-01 -4.229168E-02  0.000000E+00  2.072272E-02 -1.125139E-03  9.828216E-06 -9.797479E-02  0.000000E+00
  2.461527E-01 -4.324439E-02  1.000000E-01  2.486384E-01 -4.368108E-02  0.000000E+00  2.054476E-02 -1.004183E-03  9.914514E-06 -1.102793E-01  0.000000E+00
  2.747862E-01 -4.457209E-02  1.000000E-01  2.775611E-01 -4.502219E-02  0.000000E+00  2.040930E-02 -8.876038E-04  9.995886E-06 -1.244075E-01  0.000000E+00
  3.054740E-01 -4.583355E-02  1.000000E-01  3.085587E-01 -4.629639E-02  0.000000E+00  2.032229E-02 -7.775194E-04  1.006883E-05 -1.397448E-01  0.000000E+00
  3.380548E-01 -4.700464E-02  1.000000E-01  3.414686E-01 -4.747931E-02  0.000000E+00  2.026793E-02 -6.633088E-04  1.012502E-05 -1.569718E-01  0.000000E+00
  3.723023E-01 -4.803367E-02  1.000000E-01  3.760619E-01 -4.851873E-02  0.000000E+00  2.022429E-02 -5.340810E-04  1.015926E-05 -1.761075E-01  0.000000E+00
  4.079262E-01 -4.886211E-02  1.000000E-01  4.120455E-01 -4.935554E-02  0.000000E+00  2.018745E-02 -3.894479E-04  1.017213E-05 -1.958023E-01  0.000000E+00
  4.445792E-01 -4.944075E-02  1.000000E-01  4.490687E-01 -4.994002E-02  0.000000E+00  2.016578E-02 -2.332681E-04  1.016323E-05 -2.148868E-01  0.000000E+00
  4.818692E-01 -4.973163E-02  1.000000E-01  4.867352E-01 -5.023384E-02  0.000000E+00  2.016138E-02 -6.814339E-05  1.012668E-05 -2.329870E-01  0.000000E+00
  5.193749E-01 -4.971037E-02  1.000000E-01  5.246197E-01 -5.021236E-02  0.000000E+00  2.014492E-02  1.118591E-04  1.005164E-05 -2.504253E-01  0.000000E+00
  5.566650E-01 -4.933572E-02  1.000000E-01  5.622864E-01 -4.983393E-02  0.000000E+00  2.005436E-02  3.192470E-04  9.930335E-06 -2.670556E-01  0.000000E+00
  5.933160E-01 -4.855362E-02  1.000000E-01  5.993075E-01 -4.904393E-02  0.000000E+00  1.983434E-02  5.555504E-04  9.767083E-06 -2.808326E-01  0.000000E+00
  6.289309E-01 -4.732727E-02  1.000000E-01  6.352820E-01 -4.780520E-02  0.000000E+00  1.948937E-02  7.965613E-04  9.577052E-06 -2.876415E-01  0.000000E+00
  6.631590E-01 -4.571558E-02  1.000000E-01  6.698558E-01 -4.617723E-02  0.000000E+00  1.903970E-02  1.025371E-03  9.365354E-06 -2.865516E-01  0.000000E+00
  6.957052E-01 -4.374821E-02  1.000000E-01  7.027307E-01 -4.418999E-02  0.000000E+00  1.850589E-02  1.233278E-03  9.129450E-06 -2.786191E-01  0.000000E+00
  7.263424E-01 -4.152292E-02  1.000000E-01  7.336772E-01 -4.194223E-02  0.000000E+00  1.788771E-02  1.420818E-03  8.866377E-06 -2.658483E-01  0.000000E+00
  7.549054E-01 -3.906345E-02  1.000000E-01  7.625287E-01 -3.945792E-02  0.000000E+00  1.717875E-02  1.585620E-03  8.579526E-06 -2.489935E-01  0.000000E+00
  7.813003E-01 -3.646223E-02  1.000000E-01  7.891902E-01 -3.683044E-02  0.000000E+00  1.639407E-02  1.716404E-03  8.278027E-06 -2.270943E-01  0.000000E+00
  8.054913E-01 -3.378176E-02  1.000000E-01  8.136255E-01 -3.412290E-02  0.000000E+00  1.552342E-02  1.818121E-03  7.963513E-06 -2.019387E-01  0.000000E+00
  8.274934E-01 -3.106280E-02  1.000000E-01  8.358496E-01 -3.137648E-02  0.000000E+00  1.458483E-02  1.882986E-03  7.643199E-06 -1.733116E-01  0.000000E+00
  8.473700E-01 -2.838302E-02  1.000000E-01  8.559270E-01 -2.866964E-02  0.000000E+00  1.361025E-02  1.906040E-03  7.322897E-06 -1.415946E-01  0.000000E+00
  8.652163E-01 -2.578923E-02  1.000000E-01  8.739536E-01 -2.604965E-02  0.000000E+00  1.260941E-02  1.893557E-03  7.002643E-06 -1.090425E-01  0.000000E+00
  8.811515E-01 -2.331725E-02  1.000000E-01  8.900497E-01 -2.355271E-02  0.000000E+00  1.158795E-02  1.849223E-03  6.686222E-06 -7.660271E-02  0.000000E+00
  8.953107E-01 -2.099324E-02  1.000000E-01  9.043518E-01 -2.120523E-02  0.000000E+00  1.055124E-02  1.777231E-03  6.379611E-06 -4.495845E-02  0.000000E+00
  9.078359E-01 -1.882717E-02  1.000000E-01  9.170035E-01 -1.901729E-02  0.000000E+00  9.523027E-03  1.680064E-03  6.090927E-06 -1.405082E-02  0.000000E+00
  9.188752E-01 -1.683966E-02  1.000000E-01  9.281543E-01 -1.700971E-02  0.000000E+00  8.541415E-03  1.564736E-03  5.827731E-06  1.565538E-02  0.000000E+00
  9.285725E-01 -1.503316E-02  1.000000E-01  9.379495E-01 -1.518497E-02  0.000000E+00  7.632429E-03  1.442823E-03  5.595941E-06  4.290414E-02  0.000000E+00
  9.370662E-01 -1.340464E-02  1.000000E-01  9.465290E-01 -1.354000E-02  0.000000E+00  6.808787E-03  1.321837E-03  5.400974E-06  6.751427E-02  0.000000E+00
  9.444866E-01 -1.194672E-02  1.000000E-01  9.540244E-01 -1.206736E-02  0.000000E+00  6.071741E-03  1.205699E-03  5.242603E-06  8.959252E-02  0.000000E+00
  9.509552E-01 -1.064913E-02  1.000000E-01  9.605582E-01 -1.075667E-02  0.000000E+00  5.414020E-03  1.095910E-03  5.114550E-06  1.092559E-01  0.000000E+00
  9.565830E-01 -9.500377E-03  1.000000E-01  9.662429E-01 -9.596315E-03  0.000000E+00  4.824017E-03  9.929575E-04  5.008584E-06  1.265455E-01  0.000000E+00
  9.614710E-01 -8.486504E-03  1.000000E-01  9.711802E-01 -8.572203E-03  0.000000E+00  4.291106E-03  8.965515E-04  4.918603E-06  1.416028E-01  0.000000E+00
  9.657101E-01 -7.594647E-03  1.000000E-01  9.754622E-01 -7.671340E-03  0.000000E+00  3.812365E-03  8.066652E-04  4.841678E-06  1.547774E-01  0.000000E+00
  9.693821E-01 -6.813622E-03  1.000000E-01  9.791712E-01 -6.882428E-03  0.000000E+00  3.389678E-03  7.245142E-04  4.776396E-06  1.662306E-01  0.000000E+00
  9.725593E-01 -6.131746E-03  1.000000E-01  9.823805E-01 -6.193666E-03  0.000000E+00  3.020675E-03  6.509570E-04  4.722103E-06  1.760314E-01  0.000000E+00
  9.753059E-01 -5.537706E-03  1.000000E-01  9.851549E-01 -5.593628E-03  0.000000E+00  2.699950E-03  5.858109E-04  4.678536E-06  1.844271E-01  0.000000E+00
  9.776784E-01 -5.021490E-03  1.000000E-01  9.875513E-01 -5.072199E-03  0.000000E+00  2.423695E-03  5.289849E-04  4.644300E-06  1.916454E-01  0.000000E+00
  9.797262E-01 -4.573525E-03  1.000000E-01  9.896198E-01 -4.619710E-03  0.000000E+00  2.186284E-03  4.799475E-04  4.615720E-06  1.977777E-01  0.000000E+00
  9.814925E-01 -4.184601E-03  1.000000E-01  9.914039E-01 -4.226859E-03  0.000000E+00  1.981300E-03  4.374919E-04  4.588449E-06  2.030085E-01  0.000000E+00
  9.830152E-01 -3.847436E-03  1.000000E-01  9.929420E-01 -3.886288E-03  0.000000E+00  1.807866E-03  4.011210E-04  4.562539E-06  2.075470E-01  0.000000E+00
  9.843275E-01 -3.555848E-03  1.000000E-01  9.942675E-01 -3.591756E-03  0.000000E+00  1.663441E-03  3.700947E-04  4.549515E-06  2.114565E-01  0.000000E+00
  9.854580E-01 -3.304105E-03  1.000000E-01  9.954094E-01 -3.337471E-03  0.000000E+00  1.530633E-03  3.412420E-04  4.572580E-06  2.148224E-01  0.000000E+00
  9.864315E-01 -3.086986E-03  1.000000E-01  9.963928E-01 -3.118159E-03  0.000000E+00  1.369395E-03  3.059325E-04  4.645291E-06  2.177020E-01  0.000000E+00
  9.872697E-01 -2.899630E-03  1.000000E-01  9.972394E-01 -2.928911E-03  0.000000E+00  1.124009E-03  2.508312E-04  4.730752E-06  2.202074E-01  0.000000E+00
  9.879910E-01 -2.737837E-03  1.000000E-01  9.979680E-01 -2.765484E-03  0.000000E+00  7.444375E-04  1.707622E-04  4.710472E-06  2.225127E-01  0.000000E+00
  9.886116E-01 -2.598222E-03  1.000000E-01  9.985949E-01 -2.624460E-03  0.000000E+00  1.133256E-04  4.061338E-05  4.391530E-06  2.232462E-01  0.000000E+00
  9.891456E-01 -2.477914E-03  1.000000E-01  9.991343E-01 -2.502937E-03  0.000000E+00 -5.500003E-04 -2.085457E-04  3.564756E-06  2.241140E-01  0.000000E+00
  9.896049E-01 -2.374354E-03  1.000000E-01  9.995983E-01 -2.398331E-03  0.000000E+00  8.518267E-04  3.813644E-04  2.212449E-06  2.443175E-01  0.000000E+00
  9.900000E-01 -2.285283E-03  1.000000E-01  9.999973E-01 -2.308360E-03  0.000000E+00  1.482463E-03  6.509087E-04  7.507416E-08  2.116575E-01  0.000000E+00
  9.900000E-01 -9.757495E-10  1.000000E-01  9.999973E-01 -9.856030E-10  0.000000E+00  8.215508E-06 -5.608165E-04 -7.848966E-06  2.145202E-01  0.000000E+00
  9.900000E-01 -5.713214E-04  1.000000E-01  9.999973E-01 -5.770908E-04  0.000000E+00  3.159653E-05 -1.560830E-03 -6.856679E-06  2.165568E-01  0.000000E+00
  9.900000E-01 -1.142642E-03  1.000000E-01  9.999973E-01 -1.154181E-03  0.000000E+00 -1.031789E-04 -3.012620E-03 -5.073088E-06  2.208321E-01  0.000000E+00
  9.900000E-01 -1.713962E-03  1.000000E-01  9.999973E-01 -1.731270E-03  0.000000E+00  9.802712E-05 -1.831061E-03 -2.633960E-06  1.913233E-01  0.000000E+00
  9.900000E-01 -2.285283E-03  1.000000E-01  9.999973E-01 -2.308360E-03  0.000000E+00  1.482463E-03  6.509087E-04  7.507416E-08  2.116575E-01  0.000000E+00
  9.900000E-01  2.285281E-03  1.000000E-01  9.999973E-01  2.308358E-03  0.000000E+00  4.375040E-04 -2.172328E-04 -7.682046E-06  2.132893E-01  0.000000E+00
  9.900000E-01  1.713960E-03  1.000000E-01  9.999973E-01  1.731268E-03  0.000000E+00  4.225737E-05  7.330417E-04 -7.694211E-06  2.050573E-01  0.000000E+00
  9.900000E-01  1.142640E-03  1.000000E-01  9.999973E-01  1.154179E-03  0.000000E+00 -4.209760E-05  1.088546E-03 -7.922931E-06  2.173786E-01  0.000000E+00
  9.900000E-01  5.713194E-04  1.000000E-01  9.999973E-01  5.770888E-04  0.000000E+00  1.163674E-05  2.389624E-04 -8.104570E-06  2.159281E-01  0.000000E+00
  1.099506E-02 -1.370026E-02  1.000000E-01  1.110609E-02 -1.383861E-02  0.000000E+00  4.590386E-02 -3.207237E-02  1.397009E-05  5.345098E-01  0.000000E+00
  1.132740E-02 -1.393150E-02  1.000000E-01  1.144179E-02 -1.407218E-02  0.000000E+00  5.758278E-02 -3.828640E-02  1.424735E-05  4.144684E-01  0.000000E+00
  1.172630E-02 -1.418130E-02  1.000000E-01  1.184472E-02 -1.432451E-02  0.000000E+00  4.930918E-02 -2.968192E-02  1.266615E-05  3.752937E-01  0.000000E+00
  1.220239E-02 -1.445101E-02  1.000000E-01  1.232562E-02 -1.459694E-02  0.000000E+00  3.644700E-02 -1.991729E-02  1.078951E-05  3.838251E-01  0.000000E+00
  1.276516E-02 -1.474731E-02  1.000000E-01  1.289407E-02 -1.489623E-02  0.000000E+00  2.921910E-02 -1.522741E-02  9.479523E-06  3.846254E-01  0.000000E+00
  1.342186E-02 -1.508629E-02  1.000000E-01  1.355740E-02 -1.523864E-02  0.000000E+00  2.747417E-02 -1.421959E-02  8.842039E-06  3.824225E-01  0.000000E+00
  1.418347E-02 -1.548266E-02  1.000000E-01  1.432670E-02 -1.563901E-02  0.000000E+00  2.896636E-02 -1.497107E-02  8.492655E-06  3.651638E-01  0.000000E+00
  1.506978E-02 -1.593968E-02  1.000000E-01  1.522196E-02 -1.610065E-02  0.000000E+00  3.030341E-02 -1.491760E-02  8.186283E-06  3.230681E-01  0.000000E+00
  1.611655E-02 -1.643420E-02  1.000000E-01  1.627930E-02 -1.660015E-02  0.000000E+00  2.881368E-02 -1.276352E-02  7.904380E-06  2.666924E-01  0.000000E+00
  1.736104E-02 -1.694117E-02  1.000000E-01  1.753636E-02 -1.711225E-02  0.000000E+00  2.614508E-02 -1.064250E-02  7.708699E-06  2.500627E-01  0.000000E+00
  1.880605E-02 -1.752679E-02  1.000000E-01  1.899596E-02 -1.770378E-02  0.000000E+00  2.508036E-02 -9.746153E-03  7.568104E-06  2.513407E-01  0.000000E+00
  2.049627E-02 -1.816762E-02  1.000000E-01  2.070325E-02 -1.835108E-02  0.000000E+00  2.392483E-02 -8.437975E-03  7.427315E-06  2.103050E-01  0.000000E+00
  2.249158E-02 -1.880795E-02  1.000000E-01  2.271871E-02 -1.899788E-02  0.000000E+00  2.228219E-02 -7.180209E-03  7.410131E-06  1.961936E-01  0.000000E+00
  2.480131E-02 -1.955361E-02  1.000000E-01  2.505177E-02 -1.975107E-02  0.000000E+00  2.168161E-02 -6.607863E-03  7.484535E-06  1.972467E-01  0.000000E+00
  2.749936E-02 -2.033607E-02  1.000000E-01  2.777706E-02 -2.054143E-02  0.000000E+00  2.192637E-02 -6.311424E-03  7.587414E-06  1.801577E-01  0.000000E+00
  3.062361E-02 -2.122590E-02  1.000000E-01  3.093286E-02 -2.144025E-02  0.000000E+00  2.265109E-02 -6.232986E-03  7.731682E-06  1.638608E-01  0.000000E+00
  3.424879E-02 -2.219676E-02  1.000000E-01  3.459465E-02 -2.242091E-02  0.000000E+00  2.342248E-02 -6.065510E-03  7.874548E-06  1.331497E-01  0.000000E+00
  3.844937E-02 -2.324948E-02  1.000000E-01  3.883765E-02 -2.348426E-02  0.000000E+00  2.401769E-02 -5.810329E-03  8.027194E-06  1.014963E-01  0.000000E+00
  4.330836E-02 -2.438655E-02  1.000000E-01  4.374570E-02 -2.463281E-02  0.000000E+00  2.437212E-02 -5.450786E-03  8.176776E-06  6.982174E-02  0.000000E+00
  4.892247E-02 -2.559134E-02  1.000000E-01  4.941650E-02 -2.584977E-02  0.000000E+00  2.428835E-02 -4.886474E-03  8.318323E-06  3.555546E-02  0.000000E+00
  5.540390E-02 -2.681146E-02  1.000000E-01  5.596338E-02 -2.708222E-02  0.000000E+00  2.381511E-02 -4.219170E-03  8.474963E-06  8.987199E-03  0.000000E+00
  6.286162E-02 -2.805102E-02  1.000000E-01  6.349641E-02 -2.833429E-02  0.000000E+00  2.327698E-02 -3.630844E-03  8.653819E-06 -4.158154E-03  0.000000E+00
  7.141642E-02 -2.930186E-02  1.000000E-01  7.213760E-02 -2.959776E-02  0.000000E+00  2.294704E-02 -3.210398E-03  8.834536E-06 -9.043450E-03  0.000000E+00
  8.119005E-02 -3.061372E-02  1.000000E-01  8.200993E-02 -3.092287E-02  0.000000E+00  2.288366E-02 -2.950380E-03  8.993068E-06 -1.315158E-02  0.000000E+00
  9.231747E-02 -3.200154E-02  1.000000E-01  9.324972E-02 -3.232470E-02  0.000000E+00  2.286612E-02 -2.712796E-03  9.113853E-06 -2.551821E-02  0.000000E+00
  1.049440E-01 -3.343516E-02  1.000000E-01  1.060038E-01 -3.377280E-02  0.000000E+00  2.267600E-02 -2.412096E-03  9.213370E-06 -4.419730E-02  0.000000E+00
  1.099506E-02  1.370026E-02  1.000000E-01  1.110609E-02  1.383861E-02  0.000000E+00  9.603913E-02  6.664360E-02  9.179971E-06 -5.553706E-01  0.000000E+00
  7.265895E-03  1.108494E-02  1.000000E-01  7.339269E-03  1.119687E-02  0.000000E+00  4.843760E-02  3.748882E-02  7.095862E-06 -3.625833E-01  0.000000E+00
  3.886603E-03  8.032576E-03  1.000000E-01  3.925852E-03  8.113691E-03  0.000000E+00  2.830052E-02  3.102669E-02  5.755266E-06 -7.725127E-02  0.000000E+00
  1.228241E-03  4.343792E-03  1.000000E-01  1.240644E-03  4.387657E-03  0.000000E+00  1.449994E-02  2.817678E-02  5.939825E-06  4.243317E-01  0.000000E+00
  0.000000E+00  0.000000E+00  1.000000E-01  0.000000E+00  0.000000E+00  0.000000E+00  2.224535E-03  1.859818E-02  6.739095E-06  9.601968E-01  0.000000E+00
  1.228230E-03 -4.343795E-03  1.000000E-01  1.240633E-03 -4.387660E-03  0.000000E+00 -1.962772E-04  3.802906E-03  7.573400E-06  1.092610E+00  0.000000E+00
  3.886604E-03 -8.032572E-03  1.000000E-01  3.925852E-03 -8.113687E-03  0.000000E+00  8.786043E-03 -8.691390E-03  8.996272E-06  8.819744E-01  0.000000E+00
  7.265896E-03 -1.108493E-02  1.000000E-01  7.339270E-03 -1.119687E-02  0.000000E+00  2.437076E-02 -1.864898E-02  1.156069E-05  6.845306E-01  0.000000E+00
  1.099506E-02 -1.370026E-02  1.000000E-01  1.110609E-02 -1.383861E-02  0.000000E+00  4.590386E-02 -3.207237E-02  1.397009E-05  5.345098E-01  0.000000E+00
  8.953107E-01  2.099324E-02  1.000000E-01  9.043518E-01  2.120523E-02  0.000000E+00  6.624568E-03 -1.115072E-03 -1.525844E-05 -2.619871E-03  0.000000E+00
  8.811515E-01  2.331725E-02  1.000000E-01  8.900497E-01  2.355271E-02  0.000000E+00  7.750777E-03 -1.236168E-03 -1.586060E-05 -3.850907E-02  0.000000E+00
  8.652163E-01  2.578923E-02  1.000000E-01  8.739536E-01  2.604965E-02  0.000000E+00  8.940505E-03 -1.341705E-03 -1.645239E-05 -7.702836E-02  0.000000E+00
  8.473700E-01  2.838302E-02  1.000000E-01  8.559270E-01  2.866964E-02  0.000000E+00  1.016667E-02 -1.422777E-03 -1.700807E-05 -1.174521E-01  0.000000E+00
  8.274933E-01  3.106279E-02  1.000000E-01  8.358496E-01  3.137648E-02  0.000000E+00  1.139238E-02 -1.469556E-03 -1.749271E-05 -1.588100E-01  0.000000E+00
  8.054913E-01  3.378176E-02  1.000000E-01  8.136255E-01  3.412290E-02  0.000000E+00  1.258283E-02 -1.472325E-03 -1.789554E-05 -1.989049E-01  0.000000E+00
  7.813003E-01  3.646223E-02  1.000000E-01  7.891902E-01  3.683043E-02  0.000000E+00  1.369940E-02 -1.432960E-03 -1.820433E-05 -2.372332E-01  0.000000E+00
  7.549054E-01  3.906345E-02  1.000000E-01  7.625287E-01  3.945792E-02  0.000000E+00  1.472769E-02 -1.357856E-03 -1.841388E-05 -2.738435E-01  0.000000E+00
  7.263424E-01  4.152292E-02  1.000000E-01  7.336772E-01  4.194223E-02  0.000000E+00  1.568037E-02 -1.243917E-03 -1.854424E-05 -3.069762E-01  0.000000E+00
  6.957052E-01  4.374820E-02  1.000000E-01  7.027307E-01  4.418999E-02  0.000000E+00  1.654874E-02 -1.101216E-03 -1.857634E-05 -3.373901E-01  0.000000E+00
  6.631590E-01  4.571558E-02  1.000000E-01  6.698558E-01  4.617723E-02  0.000000E+00  1.733958E-02 -9.319004E-04 -1.850246E-05 -3.639675E-01  0.000000E+00
  6.289309E-01  4.732727E-02  1.000000E-01  6.352820E-01  4.780520E-02  0.000000E+00  1.804579E-02 -7.355674E-04 -1.832027E-05 -3.842259E-01  0.000000E+00
  5.933160E-01  4.855362E-02  1.000000E-01  5.993075E-01  4.904393E-02  0.000000E+00  1.863686E-02 -5.200354E-04 -1.802309E-05 -3.966741E-01  0.000000E+00
  5.566650E-01  4.933572E-02  1.000000E-01  5.622864E-01  4.983393E-02  0.000000E+00  1.908279E-02 -3.021467E-04 -1.760959E-05 -4.021097E-01  0.000000E+00
  5.193749E-01  4.971037E-02  1.000000E-01  5.246197E-01  5.021236E-02  0.000000E+00  1.937612E-02 -1.061492E-04 -1.707251E-05 -4.046629E-01  0.000000E+00
  4.818692E-01  4.973163E-02  1.000000E-01  4.867352E-01  5.023384E-02  0.000000E+00  1.957452E-02  6.756972E-05 -1.644302E-05 -4.064472E-01  0.000000E+00
  4.445792E-01  4.944075E-02  1.000000E-01  4.490687E-01  4.994002E-02  0.000000E+00  1.974416E-02  2.298097E-04 -1.575981E-05 -4.076455E-01  0.000000E+00
  4.079262E-01  4.886211E-02  1.000000E-01  4.120455E-01  4.935553E-02  0.000000E+00  1.991528E-02  3.855401E-04 -1.504761E-05 -4.080809E-01  0.000000E+00
  3.723023E-01  4.803367E-02  1.000000E-01  3.760619E-01  4.851873E-02  0.000000E+00  2.008381E-02  5.315880E-04 -1.431879E-05 -4.084798E-01  0.000000E+00
  3.380548E-01  4.700464E-02  1.000000E-01  3.414686E-01  4.747931E-02  0.000000E+00  2.024114E-02  6.635953E-04 -1.358345E-05 -4.104383E-01  0.000000E+00
  3.054740E-01  4.583355E-02  1.000000E-01  3.085587E-01  4.629639E-02  0.000000E+00  2.039550E-02  7.816264E-04 -1.285224E-05 -4.155598E-01  0.000000E+00
  2.747862E-01  4.457208E-02  1.000000E-01  2.775611E-01  4.502219E-02  0.000000E+00  2.057582E-02  8.963203E-04 -1.214310E-05 -4.239754E-01  0.000000E+00
  2.461527E-01  4.324439E-02  1.000000E-01  2.486384E-01  4.368108E-02  0.000000E+00  2.080323E-02  1.018162E-03 -1.147039E-05 -4.355121E-01  0.000000E+00
  2.196703E-01  4.186887E-02  1.000000E-01  2.218886E-01  4.229168E-02  0.000000E+00  2.107777E-02  1.145408E-03 -1.082794E-05 -4.519680E-01  0.000000E+00
  1.953756E-01  4.047895E-02  1.000000E-01  1.973486E-01  4.088772E-02  0.000000E+00  2.142003E-02  1.285608E-03 -1.020949E-05 -4.748913E-01  0.000000E+00
  1.732552E-01  3.907816E-02  1.000000E-01  1.750048E-01  3.947278E-02  0.000000E+00  2.186317E-02  1.452341E-03 -9.609755E-06 -5.045780E-01  0.000000E+00
  1.532523E-01  3.767563E-02  1.000000E-01  1.547999E-01  3.805609E-02  0.000000E+00  2.242541E-02  1.654758E-03 -9.023093E-06 -5.393800E-01  0.000000E+00
  1.352772E-01  3.627652E-02  1.000000E-01  1.366433E-01  3.664285E-02  0.000000E+00  2.309461E-02  1.915427E-03 -8.473531E-06 -5.732188E-01  0.000000E+00
  1.192180E-01  3.485810E-02  1.000000E-01  1.204219E-01  3.521010E-02  0.000000E+00  2.374059E-02  2.228250E-03 -7.966102E-06 -6.031309E-01  0.000000E+00
  1.049440E-01  3.343516E-02  1.000000E-01  1.060038E-01  3.377280E-02  0.000000E+00  2.420288E-02  2.570215E-03 -7.461918E-06 -6.329916E-01  0.000000E+00
  9.231747E-02  3.200153E-02  1.000000E-01  9.324972E-02  3.232469E-02  0.000000E+00  2.444497E-02  2.891979E-03 -6.848794E-06 -6.762975E-01  0.000000E+00
  8.119005E-02  3.061372E-02  1.000000E-01  8.200993E-02  3.092286E-02  0.000000E+00  2.480513E-02  3.195602E-03 -6.043641E-06 -7.432598E-01  0.000000E+00
  7.141642E-02  2.930186E-02  1.000000E-01  7.213761E-02  2.959776E-02  0.000000E+00  2.593020E-02  3.638623E-03 -5.222848E-06 -8.191545E-01  0.000000E+00
  6.286162E-02  2.805101E-02  1.000000E-01  6.349641E-02  2.833428E-02  0.000000E+00  2.798544E-02  4.384099E-03 -4.829929E-06 -8.726651E-01  0.000000E+00
  5.540390E-02  2.681146E-02  1.000000E-01  5.596338E-02  2.708221E-02  0.000000E+00  2.999405E-02  5.320652E-03 -5.221207E-06 -8.893897E-01  0.000000E+00
  4.892247E-02  2.559133E-02  1.000000E-01  4.941650E-02  2.584976E-02  0.000000E+00  3.055280E-02  6.128061E-03 -6.280398E-06 -8.819983E-01  0.000000E+00
  4.330836E-02  2.438654E-02  1.000000E-01  4.374570E-02  2.463281E-02  0.000000E+00  2.898630E-02  6.448529E-03 -7.266161E-06 -8.865116E-01  0.000000E+00
  3.844937E-02  2.324947E-02  1.000000E-01  3.883765E-02  2.348425E-02  0.000000E+00  2.617196E-02  6.306338E-03 -7.211683E-06 -9.322010E-01  0.000000E+00
  3.424879E-02  2.219676E-02  1.000000E-01  3.459465E-02  2.242091E-02  0.000000E+00  2.409107E-02  6.236107E-03 -5.642810E-06 -1.010114E+00  0.000000E+00
  3.062362E-02  2.122590E-02  1.000000E-01  3.093286E-02  2.144025E-02  0.000000E+00  2.421187E-02  6.670877E-03 -2.966086E-06 -1.095381E+00  0.000000E+00
  2.749936E-02  2.033607E-02  1.000000E-01  2.777706E-02  2.054143E-02  0.000000E+00  2.697535E-02  7.790591E-03 -2.387128E-07 -1.172162E+00  0.000000E+00
  2.480132E-02  1.955361E-02  1.000000E-01  2.505177E-02  1.975107E-02  0.000000E+00  3.204468E-02  9.812446E-03  1.602741E-06 -1.208832E+00  0.000000E+00
  2.249158E-02  1.880795E-02  1.000000E-01  2.271871E-02  1.899788E-02  0.000000E+00  3.771924E-02  1.215858E-02  2.453699E-06 -1.222066E+00  0.000000E+00
  2.049627E-02  1.816762E-02  1.000000E-01  2.070325E-02  1.835108E-02  0.000000E+00  4.338839E-02  1.530360E-02  2.693551E-06 -1.189774E+00  0.000000E+00
  1.880605E-02  1.752678E-02  1.000000E-01  1.899596E-02  1.770377E-02  0.000000E+00  4.660475E-02  1.809115E-02  2.716654E-06 -1.123317E+00  0.000000E+00
  1.736105E-02  1.694117E-02  1.000000E-01  1.753636E-02  1.711225E-02  0.000000E+00  4.792657E-02  1.953347E-02  2.820826E-06 -1.096110E+00  0.000000E+00
  1.611655E-02  1.643419E-02  1.000000E-01  1.627930E-02  1.660015E-02  0.000000E+00  5.060004E-02  2.237795E-02  2.934686E-06 -1.033092E+00  0.000000E+00
  1.506978E-02  1.593968E-02  1.000000E-01  1.522196E-02  1.610064E-02  0.000000E+00  4.886097E-02  2.392269E-02  3.020400E-06 -9.313975E-01  0.000000E+00
  1.418348E-02  1.548266E-02  1.000000E-01  1.432670E-02  1.563901E-02  0.000000E+00  4.090031E-02  2.107167E-02  3.129685E-06 -8.853654E-01  0.000000E+00
  1.342186E-02  1.508629E-02  1.000000E-01  1.355740E-02  1.523864E-02  0.000000E+00  3.629760E-02  1.874703E-02  3.275280E-06 -9.069618E-01  0.000000E+00
  1.276516E-02  1.474731E-02  1.000000E-01  1.289407E-02  1.489624E-02  0.000000E+00  4.637972E-02  2.413293E-02  3.725159E-06 -9.576499E-01  0.000000E+00
  1.220239E-02  1.445101E-02  1.000000E-01  1.232562E-02  1.459694E-02  0.000000E+00  7.786725E-02  4.288291E-02  4.899181E-06 -9.898725E-01  0.000000E+00
  1.172630E-02  1.418131E-02  1.000000E-01  1.184472E-02  1.432451E-02  0.000000E+00  1.219810E-01  7.385947E-02  6.981496E-06 -9.534821E-01  0.000000E+00
  1.132740E-02  1.393150E-02  1.000000E-01  1.144179E-02  1.407219E-02  0.000000E+00  1.373760E-01  9.073295E-02  9.184576E-06 -7.817426E-01  0.000000E+00
  1.099506E-02  1.370026E-02  1.000000E-01  1.110609E-02  1.383861E-02  0.000000E+00  9.603913E-02  6.664360E-02  9.179971E-06 -5.553706E-01  0.000000E+00
  9.900000E-01  2.285281E-03  1.000000E-01  9.999973E-01  2.308358E-03  0.000000E+00  4.375040E-04 -2.172328E-04 -7.682046E-06  2.132893E-01  0.000000E+00
  9.896049E-01  2.374352E-03  1.000000E-01  9.995983E-01  2.398329E-03  0.000000E+00 -7.036938E-05 -6.286901E-05 -7.693351E-06  2.259527E-01  0.000000E+00
  9.891456E-01  2.477913E-03  1.000000E-01  9.991343E-01  2.502935E-03  0.000000E+00 -7.502813E-04  2.077123E-04 -7.679725E-06  2.171883E-01  0.000000E+00
  9.886116E-01  2.598221E-03  1.000000E-01  9.985949E-01  2.624459E-03  0.000000E+00 -5.504270E-04  1.172804E-04 -7.850830E-06  2.170325E-01  0.000000E+00
  9.879910E-01  2.737836E-03  1.000000E-01  9.979680E-01  2.765483E-03  0.000000E+00 -3.627769E-04  8.024286E-05 -8.133291E-06  2.167749E-01  0.000000E+00
  9.872697E-01  2.899629E-03  1.000000E-01  9.972394E-01  2.928911E-03  0.000000E+00 -2.587276E-04  5.847660E-05 -8.432190E-06  2.158195E-01  0.000000E+00
  9.864315E-01  3.086985E-03  1.000000E-01  9.963928E-01  3.118159E-03  0.000000E+00 -1.955676E-04  4.367032E-05 -8.690800E-06  2.147517E-01  0.000000E+00
  9.854580E-01  3.304105E-03  1.000000E-01  9.954094E-01  3.337471E-03  0.000000E+00 -1.629859E-04  3.637800E-05 -8.885667E-06  2.134326E-01  0.000000E+00
  9.843275E-01  3.555849E-03  1.000000E-01  9.942675E-01  3.591757E-03  0.000000E+00 -1.416329E-04  3.160009E-05 -9.023079E-06  2.118058E-01  0.000000E+00
  9.830152E-01  3.847437E-03  1.000000E-01  9.929420E-01  3.886290E-03  0.000000E+00 -1.144543E-04  2.543947E-05 -9.126455E-06  2.098434E-01  0.000000E+00
  9.814925E-01  4.184604E-03  1.000000E-01  9.914039E-01  4.226861E-03  0.000000E+00 -7.150235E-05  1.586861E-05 -9.223018E-06  2.074807E-01  0.000000E+00
  9.797262E-01  4.573527E-03  1.000000E-01  9.896198E-01  4.619712E-03  0.000000E+00 -8.270714E-06  1.845992E-06 -9.335311E-06  2.046484E-01  0.000000E+00
  9.776784E-01  5.021492E-03  1.000000E-01  9.875513E-01  5.072201E-03  0.000000E+00  7.886225E-05 -1.720798E-05 -9.478246E-06  2.012031E-01  0.000000E+00
  9.753059E-01  5.537708E-03  1.000000E-01  9.851549E-01  5.593629E-03  0.000000E+00  1.956024E-04 -4.237084E-05 -9.660680E-06  1.969973E-01  0.000000E+00
  9.725593E-01  6.131747E-03  1.000000E-01  9.823805E-01  6.193667E-03  0.000000E+00  3.475563E-04 -7.482430E-05 -9.887800E-06  1.919064E-01  0.000000E+00
  9.693821E-01  6.813621E-03  1.000000E-01  9.791712E-01  6.882428E-03  0.000000E+00  5.406947E-04 -1.155026E-04 -1.016195E-05  1.857085E-01  0.000000E+00
  9.657101E-01  7.594644E-03  1.000000E-01  9.754622E-01  7.671337E-03  0.000000E+00  7.831243E-04 -1.655392E-04 -1.048312E-05  1.781329E-01  0.000000E+00
  9.614710E-01  8.486501E-03  1.000000E-01  9.711802E-01  8.572201E-03  0.000000E+00  1.082440E-03 -2.258948E-04 -1.085002E-05  1.689701E-01  0.000000E+00
  9.565830E-01  9.500378E-03  1.000000E-01  9.662429E-01  9.596316E-03  0.000000E+00  1.445597E-03 -2.972706E-04 -1.126182E-05  1.579230E-01  0.000000E+00
  9.509552E-01  1.064913E-02  1.000000E-01  9.605582E-01  1.075667E-02  0.000000E+00  1.884072E-03 -3.809925E-04 -1.172099E-05  1.445401E-01  0.000000E+00
  9.444866E-01  1.194672E-02  1.000000E-01  9.540244E-01  1.206736E-02  0.000000E+00  2.413258E-03 -4.786871E-04 -1.223371E-05  1.284606E-01  0.000000E+00
  9.370662E-01  1.340464E-02  1.000000E-01  9.465290E-01  1.354000E-02  0.000000E+00  3.045370E-03 -5.905680E-04 -1.280137E-05  1.093655E-01  0.000000E+00
  9.285725E-01  1.503316E-02  1.000000E-01  9.379495E-01  1.518497E-02  0.000000E+00  3.785221E-03 -7.148546E-04 -1.341099E-05  8.689141E-02  0.000000E+00
  9.188752E-01  1.683966E-02  1.000000E-01  9.281543E-01  1.700971E-02  0.000000E+00  4.631255E-03 -8.478141E-04 -1.403610E-05  6.067066E-02  0.000000E+00
  9.078359E-01  1.882717E-02  1.000000E-01  9.170035E-01  1.901729E-02  0.000000E+00  5.579885E-03 -9.837070E-04 -1.465233E-05  3.055825E-02  0.000000E+00
  8.953107E-01  2.099324E-02  1.000000E-01  9.043518E-01  2.120523E-02  0.000000E+00  6.624568E-03 -1.115072E-03 -1.525844E-05 -2.619871E-03  0.000000E+00
    1    2
    2    3
    3    4
    4    5
    5    6
    6    7
    7    8
    8    9
    9   10
   10   11
   11   12
   12   13
   13   14
   14   15
   15   16
   16   17
   17   18
   18   19
   19   20
   20   21
   21   22
   22   23
   23   24
   24   25
   25   26
   26   27
   27   28
   28   29
   29   30
   30   31
   31   32
   32   33
   33   34
   34   35
   35   36
   36   37
   37   38
   38   39
   39   40
   40   41
   41   42
   42   43
   43   44
   44   45
   45   46
   46   47
   47   48
   48   49
   49   50
   50   51
   51   52
   52   53
   53   54
   54   55
   56   57
   57   58
   58   59
   59   60
   61   62
   62   63
   63   64
   64   56
   65   66
   66   67
   67   68
   68   69
   69   70
   70   71
   71   72
   72   73
   73   74
   74   75
   75   76
   76   77
   77   78
   78   79
   79   80
   80   81
   81   82
   82   83
   83   84
   84   85
   85   86
   86   87
   87   88
   88   89
   89   90
   91   92
   92   93
   93   94
   94   95
   95   96
   96   97
   97   98
   98   99
  100  101
  101  102
  102  103
  103  104
  104  105
  105  106
  106  107
  107  108
  108  109
  109  110
  110  111
  111  112
  112  113
  113  114
  114  115
  115  116
  116  117
  117  118
  118  119
  119  120
  120  121
  121  122
  122  123
  123  124
  124  125
  125  126
  126  127
  127  128
  128  129
  129  130
  130  131
  131  132
  132  133
  133  134
  134  135
  135  136
  136  137
  137  138
  138  139
  139  140
  140  141
  141  142
  142  143
  143  144
  144  145
  145  146
  146  147
  147  148
  148  149
  149  150
  150  151
  151  152
  152  153
  153  154
  155  156
  156  157
  157  158
  158  159
  159  160
  160  161
  161  162
  162  163
  163  164
  164  165
  165  166
  166  167
  167  168