 Title = "ADflow Slice Data"
Variables =  "CoordinateX"  "CoordinateY"  "CoordinateZ"  "XoC"  "YoC"  "ZoC" "VelocityX" "VelocityY" "VelocityZ" "CoefPressure" "Mach" 
Zone T= "Slice_0001 None Relative Regular z = 0.10000000"
 Nodes =          180  Elements=          174  ZONETYPE=FELINESEG
 DATAPACKING=POINT
  8.641151E-02 -6.614572E-02  1.000000E-01  8.728416E-02 -6.681371E-02  0.000000E+00  3.072938E-02 -8.872701E-03  2.061560E-05 -3.690717E-01  0.000000E+00
  1.006277E-01 -6.995729E-02  1.000000E-01  1.016440E-01 -7.066377E-02  0.000000E+00  3.100925E-02 -7.722511E-03  2.021988E-05 -4.431032E-01  0.000000E+00
  1.167441E-01 -7.368319E-02  1.000000E-01  1.179231E-01 -7.442730E-02  0.000000E+00  3.109667E-02 -6.576407E-03  1.970021E-05 -5.165287E-01  0.000000E+00
  1.349083E-01 -7.718750E-02  1.000000E-01  1.362707E-01 -7.796700E-02  0.000000E+00  3.094982E-02 -5.419034E-03  1.907546E-05 -5.888267E-01  0.000000E+00
  1.552307E-01 -8.039595E-02  1.000000E-01  1.567983E-01 -8.120785E-02  0.000000E+00  3.070957E-02 -4.356225E-03  1.843582E-05 -6.540804E-01  0.000000E+00
  1.777923E-01 -8.325337E-02  1.000000E-01  1.795877E-01 -8.409412E-02  0.000000E+00  3.035969E-02 -3.363095E-03  1.776552E-05 -7.147277E-01  0.000000E+00
  2.026469E-01 -8.562758E-02  1.000000E-01  2.046933E-01 -8.649231E-02  0.000000E+00  2.991454E-02 -2.437304E-03  1.705708E-05 -7.714513E-01  0.000000E+00
  2.297926E-01 -8.747213E-02  1.000000E-01  2.321132E-01 -8.835549E-02  0.000000E+00  2.939363E-02 -1.588567E-03  1.631274E-05 -8.240709E-01  0.000000E+00
  2.591786E-01 -8.866280E-02  1.000000E-01  2.617960E-01 -8.955819E-02  0.000000E+00  2.881091E-02 -8.169186E-04  1.554349E-05 -8.724607E-01  0.000000E+00
  2.906871E-01 -8.918047E-02  1.000000E-01  2.936227E-01 -9.008108E-02  0.000000E+00  2.819804E-02 -1.345319E-04  1.479851E-05 -9.157752E-01  0.000000E+00
  3.241363E-01 -8.895820E-02  1.000000E-01  3.274097E-01 -8.985657E-02  0.000000E+00  2.753567E-02  4.757454E-04  1.413076E-05 -9.551077E-01  0.000000E+00
  3.592767E-01 -8.798033E-02  1.000000E-01  3.629050E-01 -8.886882E-02  0.000000E+00  2.690984E-02  1.006531E-03  1.359517E-05 -9.897695E-01  0.000000E+00
  3.957967E-01 -8.626823E-02  1.000000E-01  3.997937E-01 -8.713943E-02  0.000000E+00  2.647422E-02  1.470381E-03  1.314709E-05 -1.020332E+00  0.000000E+00
  4.333305E-01 -8.386752E-02  1.000000E-01  4.377066E-01 -8.471447E-02  0.000000E+00  2.641861E-02  1.898725E-03  1.266479E-05 -1.047958E+00  0.000000E+00
  4.714710E-01 -8.084169E-02  1.000000E-01  4.762322E-01 -8.165809E-02  0.000000E+00  2.672346E-02  2.311024E-03  1.212906E-05 -1.072502E+00  0.000000E+00
  5.097861E-01 -7.727962E-02  1.000000E-01  5.149343E-01 -7.806005E-02  0.000000E+00  2.656717E-02  2.637690E-03  1.166745E-05 -1.090562E+00  0.000000E+00
  5.478380E-01 -7.328564E-02  1.000000E-01  5.533705E-01 -7.402574E-02  0.000000E+00  2.403281E-02  2.646509E-03  1.104618E-05 -1.091586E+00  0.000000E+00
  5.851991E-01 -6.895210E-02  1.000000E-01  5.911089E-01 -6.964843E-02  0.000000E+00  1.767775E-02  2.097453E-03  9.038202E-06 -1.049376E+00  0.000000E+00
  6.214764E-01 -6.440196E-02  1.000000E-01  6.277526E-01 -6.505234E-02  0.000000E+00  9.039484E-03  1.131964E-03  4.049777E-06 -9.324358E-01  0.000000E+00
  6.563222E-01 -5.974306E-02  1.000000E-01  6.629503E-01 -6.034639E-02  0.000000E+00  1.615858E-03  2.109322E-04 -4.112845E-06 -7.475633E-01  0.000000E+00
  6.894438E-01 -5.505225E-02  1.000000E-01  6.964064E-01 -5.560821E-02  0.000000E+00 -2.627623E-03 -3.671447E-04 -1.352541E-05 -5.546669E-01  0.000000E+00
  7.206187E-01 -5.043311E-02  1.000000E-01  7.278960E-01 -5.094242E-02  0.000000E+00 -4.058499E-03 -6.008805E-04 -2.122549E-05 -4.131579E-01  0.000000E+00
  7.496861E-01 -4.593905E-02  1.000000E-01  7.572570E-01 -4.640298E-02  0.000000E+00 -3.880042E-03 -6.094957E-04 -2.466609E-05 -3.322562E-01  0.000000E+00
  7.765546E-01 -4.163495E-02  1.000000E-01  7.843968E-01 -4.205541E-02  0.000000E+00 -3.052065E-03 -5.015818E-04 -2.270386E-05 -2.831634E-01  0.000000E+00
  8.011913E-01 -3.756483E-02  1.000000E-01  8.092823E-01 -3.794419E-02  0.000000E+00 -2.095580E-03 -3.529512E-04 -1.582614E-05 -2.405310E-01  0.000000E+00
  8.236136E-01 -3.375021E-02  1.000000E-01  8.319311E-01 -3.409104E-02  0.000000E+00 -1.225625E-03 -2.091408E-04 -5.530823E-06 -1.999092E-01  0.000000E+00
  8.438842E-01 -3.021337E-02  1.000000E-01  8.524064E-01 -3.051848E-02  0.000000E+00 -5.207237E-04 -9.000582E-05  6.551564E-06 -1.657407E-01  0.000000E+00
  8.620981E-01 -2.696293E-02  1.000000E-01  8.708042E-01 -2.723522E-02  0.000000E+00 -4.362585E-06 -4.743251E-07  1.918874E-05 -1.393553E-01  0.000000E+00
  8.783745E-01 -2.399870E-02  1.000000E-01  8.872450E-01 -2.424106E-02  0.000000E+00  3.404971E-04  6.238679E-05  3.159911E-05 -1.184603E-01  0.000000E+00
  8.928485E-01 -2.131455E-02  1.000000E-01  9.018651E-01 -2.152980E-02  0.000000E+00  5.581830E-04  1.044056E-04  4.333105E-05 -1.009628E-01  0.000000E+00
  9.056633E-01 -1.889685E-02  1.000000E-01  9.148093E-01 -1.908768E-02  0.000000E+00  6.944494E-04  1.320292E-04  5.416583E-05 -8.598069E-02  0.000000E+00
  9.169661E-01 -1.673454E-02  1.000000E-01  9.262263E-01 -1.690353E-02  0.000000E+00  7.812762E-04  1.504875E-04  6.404183E-05 -7.312900E-02  0.000000E+00
  9.269015E-01 -1.481087E-02  1.000000E-01  9.362621E-01 -1.496044E-02  0.000000E+00  8.366301E-04  1.628918E-04  7.297724E-05 -6.212051E-02  0.000000E+00
  9.356092E-01 -1.310737E-02  1.000000E-01  9.450577E-01 -1.323974E-02  0.000000E+00  8.703983E-04  1.711116E-04  8.101869E-05 -5.263038E-02  0.000000E+00
  9.432208E-01 -1.160487E-02  1.000000E-01  9.527462E-01 -1.172207E-02  0.000000E+00  8.891812E-04  1.762816E-04  8.821921E-05 -4.441424E-02  0.000000E+00
  9.498593E-01 -1.028428E-02  1.000000E-01  9.594517E-01 -1.038813E-02  0.000000E+00  8.978908E-04  1.792958E-04  9.463599E-05 -3.729348E-02  0.000000E+00
  9.556375E-01 -9.127182E-03  1.000000E-01  9.652882E-01 -9.219355E-03  0.000000E+00  9.002995E-04  1.809323E-04  1.003294E-04 -3.112620E-02  0.000000E+00
  9.606582E-01 -8.115734E-03  1.000000E-01  9.703596E-01 -8.197693E-03  0.000000E+00  8.992854E-04  1.817608E-04  1.053599E-04 -2.579921E-02  0.000000E+00
  9.650140E-01 -7.233317E-03  1.000000E-01  9.747594E-01 -7.306364E-03  0.000000E+00  8.974522E-04  1.822907E-04  1.097865E-04 -2.119285E-02  0.000000E+00
  9.687882E-01 -6.465402E-03  1.000000E-01  9.785717E-01 -6.530694E-03  0.000000E+00  8.974325E-04  1.830344E-04  1.136632E-04 -1.721448E-02  0.000000E+00
  9.720547E-01 -5.798420E-03  1.000000E-01  9.818713E-01 -5.856977E-03  0.000000E+00  9.009278E-04  1.843466E-04  1.170409E-04 -1.380663E-02  0.000000E+00
  9.748792E-01 -5.219938E-03  1.000000E-01  9.847242E-01 -5.272653E-03  0.000000E+00  9.085676E-04  1.864099E-04  1.199849E-04 -1.089811E-02  0.000000E+00
  9.773192E-01 -4.718940E-03  1.000000E-01  9.871889E-01 -4.766596E-03  0.000000E+00  9.208508E-04  1.893783E-04  1.225997E-04 -8.418540E-03  0.000000E+00
  9.794257E-01 -4.285543E-03  1.000000E-01  9.893167E-01 -4.328821E-03  0.000000E+00  9.380594E-04  1.933598E-04  1.250381E-04 -6.323309E-03  0.000000E+00
  9.812431E-01 -3.910699E-03  1.000000E-01  9.911524E-01 -3.950192E-03  0.000000E+00  9.602034E-04  1.983796E-04  1.274375E-04 -4.560796E-03  0.000000E+00
  9.828101E-01 -3.586739E-03  1.000000E-01  9.927352E-01 -3.622961E-03  0.000000E+00  9.873987E-04  2.044022E-04  1.297262E-04 -3.067503E-03  0.000000E+00
  9.841606E-01 -3.307111E-03  1.000000E-01  9.940994E-01 -3.340509E-03  0.000000E+00  1.016867E-03  2.107358E-04  1.313607E-04 -1.800171E-03  0.000000E+00
  9.853241E-01 -3.065980E-03  1.000000E-01  9.952746E-01 -3.096943E-03  0.000000E+00  1.036612E-03  2.150978E-04  1.312513E-04 -7.169611E-04  0.000000E+00
  9.863262E-01 -2.858187E-03  1.000000E-01  9.962868E-01 -2.887051E-03  0.000000E+00  1.019069E-03  2.116438E-04  1.282155E-04  1.898422E-04  0.000000E+00
  9.871889E-01 -2.679128E-03  1.000000E-01  9.971583E-01 -2.706184E-03  0.000000E+00  9.267699E-04  1.917880E-04  1.220396E-04  9.874749E-04  0.000000E+00
  9.879315E-01 -2.524801E-03  1.000000E-01  9.979083E-01 -2.550299E-03  0.000000E+00  7.254688E-04  1.544384E-04  1.146258E-04  1.766333E-03  0.000000E+00
  9.885705E-01 -2.391839E-03  1.000000E-01  9.985538E-01 -2.415993E-03  0.000000E+00  3.179812E-04  7.869511E-05  1.102793E-04  1.448088E-03  0.000000E+00
  9.891203E-01 -2.277363E-03  1.000000E-01  9.991091E-01 -2.300361E-03  0.000000E+00 -1.461176E-04 -9.949868E-05  1.150923E-04  1.580590E-03  0.000000E+00
  9.895932E-01 -2.178857E-03  1.000000E-01  9.995869E-01 -2.200861E-03  0.000000E+00  8.665171E-04  3.282329E-04  1.358280E-04  1.529905E-02  0.000000E+00
  9.900000E-01 -2.094130E-03  1.000000E-01  9.999978E-01 -2.115278E-03  0.000000E+00  1.226393E-03  6.331741E-04  1.702757E-04 -7.794270E-03  0.000000E+00
  9.900000E-01 -1.534287E-10  1.000000E-01  9.999978E-01 -1.549782E-10  0.000000E+00  4.822356E-06 -1.167061E-03  3.919631E-04 -8.915277E-03  0.000000E+00
  9.900000E-01 -5.235326E-04  1.000000E-01  9.999978E-01 -5.288196E-04  0.000000E+00  2.208383E-05 -1.452342E-03  3.387077E-04 -7.267916E-03  0.000000E+00
  9.900000E-01 -1.047065E-03  1.000000E-01  9.999978E-01 -1.057639E-03  0.000000E+00 -9.317612E-05 -2.205980E-03  2.799935E-04 -4.057220E-03  0.000000E+00
  9.900000E-01 -1.570597E-03  1.000000E-01  9.999978E-01 -1.586459E-03  0.000000E+00  8.396993E-05 -1.153106E-03  2.198996E-04 -2.337682E-02  0.000000E+00
  9.900000E-01 -2.094130E-03  1.000000E-01  9.999978E-01 -2.115278E-03  0.000000E+00  1.226393E-03  6.331741E-04  1.702757E-04 -7.794270E-03  0.000000E+00
  9.900000E-01  2.094130E-03  1.000000E-01  9.999978E-01  2.115278E-03  0.000000E+00  5.976009E-05 -6.169472E-04  5.112289E-04 -1.860335E-03  0.000000E+00
  9.900000E-01  1.570597E-03  1.000000E-01  9.999978E-01  1.586458E-03  0.000000E+00  2.641948E-05 -1.056090E-03  4.952657E-04 -9.095280E-03  0.000000E+00
  9.900000E-01  1.047065E-03  1.000000E-01  9.999978E-01  1.057639E-03  0.000000E+00 -7.931783E-06 -9.972968E-04  4.676588E-04 -8.207533E-03  0.000000E+00
  9.900000E-01  5.235323E-04  1.000000E-01  9.999978E-01  5.288193E-04  0.000000E+00 -4.405321E-06 -1.080858E-03  4.345626E-04 -7.979395E-03  0.000000E+00
  3.986377E-03 -1.587583E-02  1.000000E-01  4.026634E-03 -1.603615E-02  0.000000E+00  1.050496E-02 -2.180135E-02  3.064835E-05  9.961988E-01  0.000000E+00
  4.185973E-03 -1.624028E-02  1.000000E-01  4.228246E-03 -1.640428E-02  0.000000E+00  1.146277E-02 -2.151236E-02  2.972207E-05  9.357550E-01  0.000000E+00
  4.417956E-03 -1.666403E-02  1.000000E-01  4.462572E-03 -1.683232E-02  0.000000E+00  9.579583E-03 -1.738028E-02  2.823956E-05  9.458687E-01  0.000000E+00
  4.687439E-03 -1.715672E-02  1.000000E-01  4.734777E-03 -1.732998E-02  0.000000E+00  8.959440E-03 -1.628828E-02  2.641674E-05  9.493777E-01  0.000000E+00
  5.001508E-03 -1.772887E-02  1.000000E-01  5.052017E-03 -1.790791E-02  0.000000E+00  9.242367E-03 -1.689152E-02  2.471688E-05  9.361364E-01  0.000000E+00
  5.365705E-03 -1.839415E-02  1.000000E-01  5.419892E-03 -1.857991E-02  0.000000E+00  9.755561E-03 -1.791751E-02  2.345012E-05  9.218125E-01  0.000000E+00
  5.784800E-03 -1.916920E-02  1.000000E-01  5.843219E-03 -1.936279E-02  0.000000E+00  1.061159E-02 -1.865476E-02  2.247965E-05  8.961955E-01  0.000000E+00
  6.307333E-03 -2.004892E-02  1.000000E-01  6.371029E-03 -2.025139E-02  0.000000E+00  1.138476E-02 -1.817562E-02  2.172866E-05  8.579411E-01  0.000000E+00
  6.963510E-03 -2.103945E-02  1.000000E-01  7.033833E-03 -2.125192E-02  0.000000E+00  1.178369E-02 -1.764153E-02  2.133407E-05  8.318574E-01  0.000000E+00
  7.736147E-03 -2.218182E-02  1.000000E-01  7.814272E-03 -2.240583E-02  0.000000E+00  1.260620E-02 -1.855816E-02  2.118644E-05  8.152487E-01  0.000000E+00
  8.632503E-03 -2.350714E-02  1.000000E-01  8.719681E-03 -2.374454E-02  0.000000E+00  1.405459E-02 -1.937021E-02  2.083346E-05  7.622641E-01  0.000000E+00
  9.768814E-03 -2.497358E-02  1.000000E-01  9.867467E-03 -2.522578E-02  0.000000E+00  1.531091E-02 -1.932682E-02  2.045184E-05  7.024639E-01  0.000000E+00
  1.112518E-02 -2.664237E-02  1.000000E-01  1.123753E-02 -2.691142E-02  0.000000E+00  1.648603E-02 -1.945502E-02  2.020670E-05  6.577534E-01  0.000000E+00
  1.276661E-02 -2.851327E-02  1.000000E-01  1.289553E-02 -2.880122E-02  0.000000E+00  1.787416E-02 -1.933458E-02  1.983235E-05  5.908165E-01  0.000000E+00
  1.477506E-02 -3.058131E-02  1.000000E-01  1.492427E-02 -3.089014E-02  0.000000E+00  1.909924E-02 -1.871365E-02  1.947986E-05  5.151024E-01  0.000000E+00
  1.721321E-02 -3.285267E-02  1.000000E-01  1.738704E-02 -3.318444E-02  0.000000E+00  2.023412E-02 -1.808690E-02  1.932727E-05  4.474755E-01  0.000000E+00
  2.013155E-02 -3.536521E-02  1.000000E-01  2.033485E-02 -3.572236E-02  0.000000E+00  2.134703E-02 -1.723224E-02  1.927631E-05  3.688451E-01  0.000000E+00
  2.367302E-02 -3.804947E-02  1.000000E-01  2.391209E-02 -3.843373E-02  0.000000E+00  2.240191E-02 -1.620098E-02  1.941927E-05  2.863522E-01  0.000000E+00
  2.788882E-02 -4.095501E-02  1.000000E-01  2.817046E-02 -4.136861E-02  0.000000E+00  2.366917E-02 -1.556884E-02  1.985983E-05  2.170302E-01  0.000000E+00
  3.287300E-02 -4.409523E-02  1.000000E-01  3.320498E-02 -4.454054E-02  0.000000E+00  2.517601E-02 -1.506273E-02  2.032044E-05  1.389750E-01  0.000000E+00
  3.875167E-02 -4.744619E-02  1.000000E-01  3.914302E-02 -4.792534E-02  0.000000E+00  2.666300E-02 -1.438329E-02  2.067730E-05  4.964682E-02  0.000000E+00
  4.565777E-02 -5.097764E-02  1.000000E-01  4.611886E-02 -5.149245E-02  0.000000E+00  2.796759E-02 -1.350768E-02  2.092996E-05 -4.147527E-02  0.000000E+00
  5.372650E-02 -5.466321E-02  1.000000E-01  5.426907E-02 -5.521524E-02  0.000000E+00  2.900616E-02 -1.244653E-02  2.104787E-05 -1.305111E-01  0.000000E+00
  6.310969E-02 -5.844960E-02  1.000000E-01  6.374702E-02 -5.903986E-02  0.000000E+00  2.973041E-02 -1.122122E-02  2.100404E-05 -2.168946E-01  0.000000E+00
  7.396035E-02 -6.227592E-02  1.000000E-01  7.470725E-02 -6.290483E-02  0.000000E+00  3.029397E-02 -1.002630E-02  2.086922E-05 -2.949295E-01  0.000000E+00
  8.641151E-02 -6.614572E-02  1.000000E-01  8.728416E-02 -6.681371E-02  0.000000E+00  3.072938E-02 -8.872701E-03  2.061560E-05 -3.690717E-01  0.000000E+00
  3.986377E-03  1.587581E-02  1.000000E-01  4.026634E-03  1.603613E-02  0.000000E+00  1.653103E-02  3.414050E-02  3.096185E-05  7.801921E-01  0.000000E+00
  2.353184E-03  1.208744E-02  1.000000E-01  2.376948E-03  1.220951E-02  0.000000E+00  1.020046E-02  2.647788E-02  2.977519E-05  9.137401E-01  0.000000E+00
  1.103712E-03  8.156736E-03  1.000000E-01  1.114858E-03  8.239109E-03  0.000000E+00  4.912277E-03  1.816966E-02  2.641945E-05  1.009773E+00  0.000000E+00
  2.977762E-04  4.112492E-03  1.000000E-01  3.007833E-04  4.154023E-03  0.000000E+00  1.705095E-03  1.104446E-02  2.402776E-05  1.091991E+00  0.000000E+00
  0.000000E+00  0.000000E+00  1.000000E-01  0.000000E+00  0.000000E+00  0.000000E+00  2.343709E-04  4.603967E-03  2.340669E-05  1.147067E+00  0.000000E+00
  2.977927E-04 -4.112494E-03  1.000000E-01  3.008000E-04 -4.154025E-03  0.000000E+00  4.609150E-04 -1.843951E-03  2.436348E-05  1.158955E+00  0.000000E+00
  1.103720E-03 -8.156744E-03  1.000000E-01  1.114866E-03 -8.239117E-03  0.000000E+00  2.413099E-03 -8.603609E-03  2.664480E-05  1.131728E+00  0.000000E+00
  2.353196E-03 -1.208745E-02  1.000000E-01  2.376961E-03 -1.220952E-02  0.000000E+00  6.095394E-03 -1.567860E-02  2.952839E-05  1.084420E+00  0.000000E+00
  3.986377E-03 -1.587583E-02  1.000000E-01  4.026634E-03 -1.603615E-02  0.000000E+00  1.050496E-02 -2.180135E-02  3.064835E-05  9.961988E-01  0.000000E+00
  8.928485E-01  2.131455E-02  1.000000E-01  9.018651E-01  2.152980E-02  0.000000E+00 -3.182395E-03  5.950472E-04  3.919345E-04 -6.305406E-02  0.000000E+00
  8.783745E-01  2.399870E-02  1.000000E-01  8.872450E-01  2.424105E-02  0.000000E+00 -3.086107E-03  5.669501E-04  3.971685E-04 -6.751595E-02  0.000000E+00
  8.620981E-01  2.696292E-02  1.000000E-01  8.708042E-01  2.723522E-02  0.000000E+00 -2.985144E-03  5.379397E-04  4.025922E-04 -7.244685E-02  0.000000E+00
  8.438842E-01  3.021336E-02  1.000000E-01  8.524064E-01  3.051848E-02  0.000000E+00 -2.885107E-03  5.089058E-04  4.069075E-04 -7.821643E-02  0.000000E+00
  8.236136E-01  3.375021E-02  1.000000E-01  8.319311E-01  3.409104E-02  0.000000E+00 -2.788774E-03  4.803015E-04  4.076376E-04 -8.518723E-02  0.000000E+00
  8.011913E-01  3.756483E-02  1.000000E-01  8.092823E-01  3.794419E-02  0.000000E+00 -2.696228E-03  4.518753E-04  4.010467E-04 -9.375108E-02  0.000000E+00
  7.765546E-01  4.163495E-02  1.000000E-01  7.843968E-01  4.205541E-02  0.000000E+00 -2.606311E-03  4.238601E-04  3.825155E-04 -1.043371E-01  0.000000E+00
  7.496861E-01  4.593905E-02  1.000000E-01  7.572570E-01  4.640298E-02  0.000000E+00 -2.520427E-03  3.965563E-04  3.473542E-04 -1.173873E-01  0.000000E+00
  7.206187E-01  5.043311E-02  1.000000E-01  7.278960E-01  5.094242E-02  0.000000E+00 -2.448994E-03  3.707063E-04  2.917519E-04 -1.332526E-01  0.000000E+00
  6.894438E-01  5.505225E-02  1.000000E-01  6.964064E-01  5.560821E-02  0.000000E+00 -2.419071E-03  3.506592E-04  2.134033E-04 -1.521195E-01  0.000000E+00
  6.563222E-01  5.974306E-02  1.000000E-01  6.629503E-01  6.034639E-02  0.000000E+00 -2.477219E-03  3.404276E-04  1.117766E-04 -1.744313E-01  0.000000E+00
  6.214764E-01  6.440196E-02  1.000000E-01  6.277526E-01  6.505234E-02  0.000000E+00 -2.673690E-03  3.441451E-04 -1.148951E-05 -2.021156E-01  0.000000E+00
  5.851991E-01  6.895210E-02  1.000000E-01  5.911089E-01  6.964843E-02  0.000000E+00 -3.038352E-03  3.645283E-04 -1.511250E-04 -2.372088E-01  0.000000E+00
  5.478380E-01  7.328564E-02  1.000000E-01  5.533705E-01  7.402574E-02  0.000000E+00 -3.573235E-03  3.963037E-04 -2.972044E-04 -2.773690E-01  0.000000E+00
  5.097861E-01  7.727962E-02  1.000000E-01  5.149343E-01  7.806005E-02  0.000000E+00 -4.235535E-03  4.236770E-04 -4.366589E-04 -3.174092E-01  0.000000E+00
  4.714710E-01  8.084169E-02  1.000000E-01  4.762322E-01  8.165809E-02  0.000000E+00 -4.837763E-03  4.134012E-04 -5.547022E-04 -3.643528E-01  0.000000E+00
  4.333305E-01  8.386751E-02  1.000000E-01  4.377066E-01  8.471447E-02  0.000000E+00 -4.831172E-03  3.296752E-04 -6.312236E-04 -4.513965E-01  0.000000E+00
  3.957967E-01  8.626823E-02  1.000000E-01  3.997937E-01  8.713943E-02  0.000000E+00 -3.074464E-03  1.632010E-04 -6.354966E-04 -6.135292E-01  0.000000E+00
  3.592767E-01  8.798033E-02  1.000000E-01  3.629050E-01  8.886882E-02  0.000000E+00  2.064173E-03 -3.114419E-05 -5.350323E-04 -8.310638E-01  0.000000E+00
  3.241363E-01  8.895820E-02  1.000000E-01  3.274097E-01  8.985657E-02  0.000000E+00  1.123335E-02 -9.818860E-05 -3.367621E-04 -1.018689E+00  0.000000E+00
  2.906871E-01  8.918046E-02  1.000000E-01  2.936226E-01  9.008107E-02  0.000000E+00  2.168223E-02  1.781439E-04 -1.197473E-04 -1.109454E+00  0.000000E+00
  2.591786E-01  8.866280E-02  1.000000E-01  2.617960E-01  8.955818E-02  0.000000E+00  2.883001E-02  8.344264E-04  1.945443E-05 -1.116154E+00  0.000000E+00
  2.297926E-01  8.747212E-02  1.000000E-01  2.321132E-01  8.835548E-02  0.000000E+00  3.131451E-02  1.682589E-03  5.815387E-05 -1.082793E+00  0.000000E+00
  2.026469E-01  8.562757E-02  1.000000E-01  2.046933E-01  8.649231E-02  0.000000E+00  3.129531E-02  2.542430E-03  4.361705E-05 -1.036545E+00  0.000000E+00
  1.777922E-01  8.325336E-02  1.000000E-01  1.795877E-01  8.409412E-02  0.000000E+00  3.101160E-02  3.434382E-03  2.337102E-05 -9.850405E-01  0.000000E+00
  1.552307E-01  8.039595E-02  1.000000E-01  1.567983E-01  8.120785E-02  0.000000E+00  3.117509E-02  4.425765E-03  1.453387E-05 -9.303354E-01  0.000000E+00
  1.349083E-01  7.718750E-02  1.000000E-01  1.362707E-01  7.796699E-02  0.000000E+00  3.163588E-02  5.544657E-03  1.455486E-05 -8.723848E-01  0.000000E+00
  1.167441E-01  7.368319E-02  1.000000E-01  1.179231E-01  7.442730E-02  0.000000E+00  3.216238E-02  6.806612E-03  1.722670E-05 -8.090564E-01  0.000000E+00
  1.006277E-01  6.995729E-02  1.000000E-01  1.016439E-01  7.066377E-02  0.000000E+00  3.247293E-02  8.091281E-03  1.922104E-05 -7.454854E-01  0.000000E+00
  8.641150E-02  6.614571E-02  1.000000E-01  8.728415E-02  6.681370E-02  0.000000E+00  3.260687E-02  9.419696E-03  2.010231E-05 -6.810382E-01  0.000000E+00
  7.396034E-02  6.227591E-02  1.000000E-01  7.470724E-02  6.290482E-02  0.000000E+00  3.261560E-02  1.079957E-02  2.040782E-05 -6.147615E-01  0.000000E+00
  6.310968E-02  5.844959E-02  1.000000E-01  6.374701E-02  5.903986E-02  0.000000E+00  3.252878E-02  1.228360E-02  2.061486E-05 -5.419338E-01  0.000000E+00
  5.372649E-02  5.466320E-02  1.000000E-01  5.426906E-02  5.521523E-02  0.000000E+00  3.227781E-02  1.385554E-02  2.088746E-05 -4.582777E-01  0.000000E+00
  4.565776E-02  5.097763E-02  1.000000E-01  4.611885E-02  5.149244E-02  0.000000E+00  3.163203E-02  1.528174E-02  2.110200E-05 -3.703713E-01  0.000000E+00
  3.875166E-02  4.744618E-02  1.000000E-01  3.914301E-02  4.792533E-02  0.000000E+00  3.062524E-02  1.652358E-02  2.119825E-05 -2.804535E-01  0.000000E+00
  3.287299E-02  4.409522E-02  1.000000E-01  3.320497E-02  4.454053E-02  0.000000E+00  2.933793E-02  1.755386E-02  2.111792E-05 -1.939905E-01  0.000000E+00
  2.788881E-02  4.095500E-02  1.000000E-01  2.817045E-02  4.136860E-02  0.000000E+00  2.795149E-02  1.838755E-02  2.079644E-05 -1.204224E-01  0.000000E+00
  2.367301E-02  3.804946E-02  1.000000E-01  2.391208E-02  3.843372E-02  0.000000E+00  2.680736E-02  1.939232E-02  2.037424E-05 -5.426992E-02  0.000000E+00
  2.013154E-02  3.536520E-02  1.000000E-01  2.033484E-02  3.572235E-02  0.000000E+00  2.591872E-02  2.092880E-02  2.020526E-05  2.995625E-02  0.000000E+00
  1.721320E-02  3.285266E-02  1.000000E-01  1.738703E-02  3.318443E-02  0.000000E+00  2.487064E-02  2.223085E-02  2.015551E-05  1.131252E-01  0.000000E+00
  1.477505E-02  3.058130E-02  1.000000E-01  1.492426E-02  3.089013E-02  0.000000E+00  2.371592E-02  2.324156E-02  2.015044E-05  1.873886E-01  0.000000E+00
  1.276660E-02  2.851326E-02  1.000000E-01  1.289553E-02  2.880121E-02  0.000000E+00  2.247048E-02  2.430842E-02  2.038712E-05  2.738139E-01  0.000000E+00
  1.112517E-02  2.664235E-02  1.000000E-01  1.123752E-02  2.691140E-02  0.000000E+00  2.100776E-02  2.478938E-02  2.066041E-05  3.512200E-01  0.000000E+00
  9.768815E-03  2.497356E-02  1.000000E-01  9.867468E-03  2.522576E-02  0.000000E+00  1.978563E-02  2.498375E-02  2.080006E-05  4.042062E-01  0.000000E+00
  8.632507E-03  2.350712E-02  1.000000E-01  8.719684E-03  2.374451E-02  0.000000E+00  1.845386E-02  2.544401E-02  2.119590E-05  4.804331E-01  0.000000E+00
  7.736150E-03  2.218180E-02  1.000000E-01  7.814275E-03  2.240581E-02  0.000000E+00  1.672910E-02  2.460770E-02  2.155200E-05  5.478576E-01  0.000000E+00
  6.963514E-03  2.103943E-02  1.000000E-01  7.033836E-03  2.125190E-02  0.000000E+00  1.577214E-02  2.361031E-02  2.154920E-05  5.648727E-01  0.000000E+00
  6.307336E-03  2.004890E-02  1.000000E-01  6.371032E-03  2.025136E-02  0.000000E+00  1.561097E-02  2.495604E-02  2.186098E-05  5.951763E-01  0.000000E+00
  5.784803E-03  1.916918E-02  1.000000E-01  5.843222E-03  1.936277E-02  0.000000E+00  1.492758E-02  2.624273E-02  2.264872E-05  6.487538E-01  0.000000E+00
  5.365707E-03  1.839413E-02  1.000000E-01  5.419893E-03  1.857988E-02  0.000000E+00  1.373005E-02  2.520556E-02  2.353335E-05  6.872417E-01  0.000000E+00
  5.001509E-03  1.772885E-02  1.000000E-01  5.052018E-03  1.790789E-02  0.000000E+00  1.267684E-02  2.316039E-02  2.451432E-05  7.075479E-01  0.000000E+00
  4.687440E-03  1.715670E-02  1.000000E-01  4.734778E-03  1.732996E-02  0.000000E+00  1.203924E-02  2.183076E-02  2.591307E-05  7.216051E-01  0.000000E+00
  4.417957E-03  1.666401E-02  1.000000E-01  4.462573E-03  1.683229E-02  0.000000E+00  1.340901E-02  2.435367E-02  2.759469E-05  7.062928E-01  0.000000E+00
  4.185973E-03  1.624026E-02  1.000000E-01  4.228246E-03  1.640426E-02  0.000000E+00  1.729421E-02  3.231606E-02  2.944913E-05  6.924155E-01  0.000000E+00
  3.986377E-03  1.587581E-02  1.000000E-01  4.026634E-03  1.603613E-02  0.000000E+00  1.653103E-02  3.414050E-02  3.096185E-05  7.801921E-01  0.000000E+00
  9.900000E-01  2.094130E-03  1.000000E-01  9.999978E-01  2.115278E-03  0.000000E+00  5.976009E-05 -6.169472E-04  5.112289E-04 -1.860335E-03  0.000000E+00
  9.895932E-01  2.178856E-03  1.000000E-01  9.995869E-01  2.200860E-03  0.000000E+00 -3.228989E-04  4.283603E-05  4.994397E-04  1.712984E-03  0.000000E+00
  9.891203E-01  2.277362E-03  1.000000E-01  9.991091E-01  2.300360E-03  0.000000E+00 -6.531457E-04  1.570904E-04  4.717587E-04 -2.432182E-03  0.000000E+00
  9.885705E-01  2.391838E-03  1.000000E-01  9.985538E-01  2.415992E-03  0.000000E+00 -5.688261E-04  1.162701E-04  4.505245E-04 -2.209391E-03  0.000000E+00
  9.879315E-01  2.524800E-03  1.000000E-01  9.979083E-01  2.550297E-03  0.000000E+00 -5.764460E-04  1.192627E-04  4.374419E-04 -1.777907E-03  0.000000E+00
  9.871889E-01  2.679127E-03  1.000000E-01  9.971583E-01  2.706182E-03  0.000000E+00 -6.883897E-04  1.441768E-04  4.310458E-04 -1.933212E-03  0.000000E+00
  9.863262E-01  2.858186E-03  1.000000E-01  9.962868E-01  2.887050E-03  0.000000E+00 -8.442226E-04  1.757155E-04  4.290447E-04 -2.139261E-03  0.000000E+00
  9.853241E-01  3.065980E-03  1.000000E-01  9.952746E-01  3.096942E-03  0.000000E+00 -1.033571E-03  2.146385E-04  4.290889E-04 -2.450269E-03  0.000000E+00
  9.841606E-01  3.307111E-03  1.000000E-01  9.940994E-01  3.340508E-03  0.000000E+00 -1.248869E-03  2.590135E-04  4.294951E-04 -2.957162E-03  0.000000E+00
  9.828101E-01  3.586739E-03  1.000000E-01  9.927352E-01  3.622960E-03  0.000000E+00 -1.482577E-03  3.069396E-04  4.293464E-04 -3.704411E-03  0.000000E+00
  9.812431E-01  3.910698E-03  1.000000E-01  9.911524E-01  3.950192E-03  0.000000E+00 -1.729215E-03  3.571723E-04  4.282782E-04 -4.755542E-03  0.000000E+00
  9.794257E-01  4.285543E-03  1.000000E-01  9.893167E-01  4.328821E-03  0.000000E+00 -1.983320E-03  4.085877E-04  4.262192E-04 -6.182212E-03  0.000000E+00
  9.773192E-01  4.718941E-03  1.000000E-01  9.871889E-01  4.766596E-03  0.000000E+00 -2.238724E-03  4.600776E-04  4.232023E-04 -8.043997E-03  0.000000E+00
  9.748792E-01  5.219938E-03  1.000000E-01  9.847242E-01  5.272653E-03  0.000000E+00 -2.488025E-03  5.100706E-04  4.192598E-04 -1.040502E-02  0.000000E+00
  9.720547E-01  5.798420E-03  1.000000E-01  9.818713E-01  5.856977E-03  0.000000E+00 -2.721989E-03  5.564472E-04  4.144130E-04 -1.332052E-02  0.000000E+00
  9.687882E-01  6.465401E-03  1.000000E-01  9.785717E-01  6.530693E-03  0.000000E+00 -2.930937E-03  5.971562E-04  4.087455E-04 -1.679887E-02  0.000000E+00
  9.650140E-01  7.233317E-03  1.000000E-01  9.747594E-01  7.306364E-03  0.000000E+00 -3.106826E-03  6.304564E-04  4.024869E-04 -2.080858E-02  0.000000E+00
  9.606582E-01  8.115735E-03  1.000000E-01  9.703596E-01  8.197693E-03  0.000000E+00 -3.244056E-03  6.550316E-04  3.960414E-04 -2.529082E-02  0.000000E+00
  9.556375E-01  9.127183E-03  1.000000E-01  9.652882E-01  9.219356E-03  0.000000E+00 -3.340236E-03  6.705718E-04  3.899739E-04 -3.012950E-02  0.000000E+00
  9.498593E-01  1.028427E-02  1.000000E-01  9.594517E-01  1.038813E-02  0.000000E+00 -3.397070E-03  6.776887E-04  3.849558E-04 -3.516749E-02  0.000000E+00
  9.432208E-01  1.160487E-02  1.000000E-01  9.527462E-01  1.172207E-02  0.000000E+00 -3.419592E-03  6.773111E-04  3.816314E-04 -4.024868E-02  0.000000E+00
  9.356092E-01  1.310737E-02  1.000000E-01  9.450577E-01  1.323974E-02  0.000000E+00 -3.413966E-03  6.705819E-04  3.803937E-04 -4.522026E-02  0.000000E+00
  9.269015E-01  1.481087E-02  1.000000E-01  9.362621E-01  1.496044E-02  0.000000E+00 -3.385127E-03  6.585347E-04  3.812103E-04 -4.997313E-02  0.000000E+00
  9.169661E-01  1.673454E-02  1.000000E-01  9.262263E-01  1.690354E-02  0.000000E+00 -3.335701E-03  6.417357E-04  3.836931E-04 -5.447547E-02  0.000000E+00
  9.056633E-01  1.889685E-02  1.000000E-01  9.148093E-01  1.908768E-02  0.000000E+00 -3.267269E-03  6.204667E-04  3.873750E-04 -5.877843E-02  0.000000E+00
  8.928485E-01  2.131455E-02  1.000000E-01  9.018651E-01  2.152980E-02  0.000000E+00 -3.182395E-03  5.950472E-04  3.919345E-04 -6.305406E-02  0.000000E+00
    1    2
    2    3
    3    4
    4    5
    5    6
    6    7
    7    8
    8    9
    9   10
   10   11
   11   12
   12   13
   13   14
   14   15
   15   16
   16   17
   17   18
   18   19
   19   20
   20   21
   21   22
   22   23
   23   24
   24   25
   25   26
   26   27
   27   28
   28   29
   29   30
   30   31
   31   32
   32   33
   33   34
   34   35
   35   36
   36   37
   37   38
   38   39
   39   40
   40   41
   41   42
   42   43
   43   44
   44   45
   45   46
   46   47
   47   48
   48   49
   49   50
   50   51
   51   52
   52   53
   53   54
   54   55
   56   57
   57   58
   58   59
   59   60
   61   62
   62   63
   63   64
   64   56
   65   66
   66   67
   67   68
   68   69
   69   70
   70   71
   71   72
   72   73
   73   74
   74   75
   75   76
   76   77
   77   78
   78   79
   79   80
   80   81
   81   82
   82   83
   83   84
   84   85
   85   86
   86   87
   87   88
   88   89
   89   90
   91   92
   92   93
   93   94
   94   95
   95   96
   96   97
   97   98
   98   99
  100  101
  101  102
  102  103
  103  104
  104  105
  105  106
  106  107
  107  108
  108  109
  109  110
  110  111
  111  112
  112  113
  113  114
  114  115
  115  116
  116  117
  117  118
  118  119
  119  120
  120  121
  121  122
  122  123
  123  124
  124  125
  125  126
  126  127
  127  128
  128  129
  129  130
  130  131
  131  132
  132  133
  133  134
  134  135
  135  136
  136  137
  137  138
  138  139
  139  140
  140  141
  141  142
  142  143
  143  144
  144  145
  145  146
  146  147
  147  148
  148  149
  149  150
  150  151
  151  152
  152  153
  153  154
  155  156
  156  157
  157  158
  158  159
  159  160
  160  161
  161  162
  162  163
  163  164
  164  165
  165  166
  166  167
  167  168