 Title = "ADflow Slice Data"
Variables =  "CoordinateX"  "CoordinateY"  "CoordinateZ"  "XoC"  "YoC"  "ZoC" "VelocityX" "VelocityY" "VelocityZ" "CoefPressure" "Mach" 
Zone T= "Slice_0001 None Absolute Regular z = 0.50000000"
 Nodes =          192  Elements=          184  ZONETYPE=FELINESEG
 DATAPACKING=POINT
  5.560760E-01 -1.944397E-02  5.000000E-01  5.616895E-01 -1.945929E-02  0.000000E+00  1.092059E-02  9.432704E-04 -1.634730E-18 -4.449804E-01  0.000000E+00
  5.770550E-01 -1.762965E-02  5.000000E-01  5.828802E-01 -1.762665E-02  0.000000E+00  7.558443E-03  6.543267E-04 -4.841238E-19 -2.808612E-01  0.000000E+00
  5.977760E-01 -1.583282E-02  5.000000E-01  6.038104E-01 -1.581168E-02  0.000000E+00  6.101411E-03  5.534516E-04 -1.118781E-18 -1.209745E-01  0.000000E+00
  6.181820E-01 -1.399765E-02  5.000000E-01  6.244224E-01 -1.395799E-02  0.000000E+00  5.929357E-03  5.674666E-04 -2.753155E-18 -1.908091E-02  0.000000E+00
  6.382180E-01 -1.206942E-02  5.000000E-01  6.446607E-01 -1.201029E-02  0.000000E+00  6.228502E-03  6.295840E-04 -3.176413E-18  1.572565E-02  0.000000E+00
  6.578350E-01 -1.000905E-02  5.000000E-01  6.644757E-01 -9.929122E-03  0.000000E+00  6.444372E-03  7.013140E-04 -2.895540E-18  1.861410E-02  0.000000E+00
  6.769910E-01 -7.805550E-03  5.000000E-01  6.838251E-01 -7.703381E-03  0.000000E+00  6.347635E-03  7.516264E-04 -3.244040E-19  2.859558E-02  0.000000E+00
  6.956490E-01 -5.488217E-03  5.000000E-01  7.026714E-01 -5.362656E-03  0.000000E+00  5.948630E-03  7.576666E-04 -1.020631E-18  5.910262E-02  0.000000E+00
  7.137810E-01 -3.108992E-03  5.000000E-01  7.209865E-01 -2.959413E-03  0.000000E+00  5.360554E-03  7.162459E-04 -2.061969E-18  1.016968E-01  0.000000E+00
  7.313660E-01 -7.275617E-04  5.000000E-01  7.387490E-01 -5.539428E-04  0.000000E+00  4.693575E-03  6.411377E-04  2.626608E-18  1.441509E-01  0.000000E+00
  7.483850E-01  1.605773E-03  5.000000E-01  7.559398E-01  1.802946E-03  0.000000E+00  4.023187E-03  5.521045E-04  3.308301E-18  1.810043E-01  0.000000E+00
  7.648220E-01  3.858811E-03  5.000000E-01  7.725427E-01  4.078728E-03  0.000000E+00  3.404553E-03  4.647365E-04 -7.937704E-19  2.126305E-01  0.000000E+00
  7.806630E-01  6.010887E-03  5.000000E-01  7.885436E-01  6.252528E-03  0.000000E+00  2.894233E-03  3.848638E-04  1.284751E-19  2.412049E-01  0.000000E+00
  7.958970E-01  7.999053E-03  5.000000E-01  8.039314E-01  8.260764E-03  0.000000E+00  2.556913E-03  3.125283E-04  3.045784E-18  2.687599E-01  0.000000E+00
  8.105170E-01  9.661189E-03  5.000000E-01  8.186990E-01  9.939679E-03  0.000000E+00  2.437714E-03  2.495622E-04  1.085769E-18  2.934980E-01  0.000000E+00
  8.245160E-01  1.092307E-02  5.000000E-01  8.328393E-01  1.121430E-02  0.000000E+00  2.533111E-03  1.960729E-04 -1.452327E-18  3.114718E-01  0.000000E+00
  8.378940E-01  1.179302E-02  5.000000E-01  8.463523E-01  1.209303E-02  0.000000E+00  2.805087E-03  1.468478E-04 -2.081785E-18  3.221958E-01  0.000000E+00
  8.506490E-01  1.231894E-02  5.000000E-01  8.592361E-01  1.262426E-02  0.000000E+00  3.209975E-03  9.556825E-05 -1.200352E-18  3.276352E-01  0.000000E+00
  8.627850E-01  1.256177E-02  5.000000E-01  8.714946E-01  1.286955E-02  0.000000E+00  3.709680E-03  3.782833E-05  5.474436E-19  3.293960E-01  0.000000E+00
  8.743060E-01  1.258180E-02  5.000000E-01  8.831319E-01  1.288977E-02  0.000000E+00  4.270709E-03 -2.823251E-05  8.215680E-19  3.281977E-01  0.000000E+00
  8.852170E-01  1.243024E-02  5.000000E-01  8.941531E-01  1.273668E-02  0.000000E+00  4.864462E-03 -1.026883E-04  2.740519E-19  3.245791E-01  0.000000E+00
  8.955250E-01  1.214702E-02  5.000000E-01  9.045651E-01  1.245061E-02  0.000000E+00  5.469276E-03 -1.848511E-04 -1.193982E-18  3.190447E-01  0.000000E+00
  9.052400E-01  1.176362E-02  5.000000E-01  9.143782E-01  1.206334E-02  0.000000E+00  6.071906E-03 -2.743113E-04 -2.407849E-18  3.119863E-01  0.000000E+00
  9.143710E-01  1.130398E-02  5.000000E-01  9.236014E-01  1.159906E-02  0.000000E+00  6.669645E-03 -3.733807E-04 -4.472378E-18  3.038233E-01  0.000000E+00
  9.143710E-01  1.130398E-02  5.000000E-01  9.236014E-01  1.159906E-02  0.000000E+00  6.669645E-03 -3.733807E-04 -4.472378E-18  3.038233E-01  0.000000E+00
  9.229270E-01  1.078120E-02  5.000000E-01  9.322437E-01  1.107099E-02  0.000000E+00  7.270686E-03 -4.870748E-04 -2.085152E-18  2.948145E-01  0.000000E+00
  9.309180E-01  1.020268E-02  5.000000E-01  9.403154E-01  1.048663E-02  0.000000E+00  7.890571E-03 -6.203420E-04  3.035998E-18  2.847673E-01  0.000000E+00
  9.383550E-01  9.575205E-03  5.000000E-01  9.478275E-01  9.852827E-03  0.000000E+00  8.548775E-03 -7.778785E-04  1.341900E-18  2.732747E-01  0.000000E+00
  9.452490E-01  8.905724E-03  5.000000E-01  9.547911E-01  9.176588E-03  0.000000E+00  9.268027E-03 -9.660717E-04  8.638427E-19  2.599855E-01  0.000000E+00
  9.516100E-01  8.200948E-03  5.000000E-01  9.612163E-01  8.464697E-03  0.000000E+00  1.007416E-02 -1.193044E-03  3.725647E-19  2.445244E-01  0.000000E+00
  9.574470E-01  7.468776E-03  5.000000E-01  9.671122E-01  7.725134E-03  0.000000E+00  1.099422E-02 -1.467115E-03  6.334369E-20  2.263225E-01  0.000000E+00
  9.627730E-01  6.719015E-03  5.000000E-01  9.724920E-01  6.967804E-03  0.000000E+00  1.205586E-02 -1.797162E-03  1.526566E-18  2.047308E-01  0.000000E+00
  9.675950E-01  5.963787E-03  5.000000E-01  9.773626E-01  6.204953E-03  0.000000E+00  1.328984E-02 -2.192067E-03  2.080291E-18  1.790744E-01  0.000000E+00
  9.719240E-01  5.217092E-03  5.000000E-01  9.817353E-01  5.450720E-03  0.000000E+00  1.473650E-02 -2.661398E-03  2.885248E-18  1.485890E-01  0.000000E+00
  9.757700E-01  4.494412E-03  5.000000E-01  9.856202E-01  4.720745E-03  0.000000E+00  1.645796E-02 -3.220296E-03  3.962577E-18  1.125390E-01  0.000000E+00
  9.791410E-01  3.811496E-03  5.000000E-01  9.890252E-01  4.030935E-03  0.000000E+00  1.854508E-02 -3.890958E-03  3.068342E-18  7.017096E-02  0.000000E+00
  9.820450E-01  3.183630E-03  5.000000E-01  9.919585E-01  3.396731E-03  0.000000E+00  2.108716E-02 -4.696526E-03 -1.490412E-17  2.038136E-02  0.000000E+00
  9.844890E-01  2.625099E-03  5.000000E-01  9.944272E-01  2.832562E-03  0.000000E+00  2.408238E-02 -5.644396E-03 -7.175096E-17 -3.799912E-02  0.000000E+00
  9.864800E-01  2.148857E-03  5.000000E-01  9.964383E-01  2.351512E-03  0.000000E+00  2.734759E-02 -6.659651E-03 -1.481480E-16 -1.045143E-01  0.000000E+00
  9.880230E-01  1.766356E-03  5.000000E-01  9.979968E-01  1.965150E-03  0.000000E+00  3.019199E-02 -7.499600E-03 -5.810102E-17 -1.857294E-01  0.000000E+00
  9.891220E-01  1.486648E-03  5.000000E-01  9.991069E-01  1.682619E-03  0.000000E+00  3.211303E-02 -8.352911E-03  7.042679E-16 -2.826065E-01  0.000000E+00
  9.897810E-01  1.316165E-03  5.000000E-01  9.997726E-01  1.510415E-03  0.000000E+00  4.662248E-02 -1.046054E-02  2.682704E-15 -2.795887E-01  0.000000E+00
  9.900000E-01  1.258919E-03  5.000000E-01  9.999938E-01  1.452591E-03  0.000000E+00  3.230092E-02 -1.432224E-03  7.068467E-15 -6.210537E-01  0.000000E+00
  9.900000E-01  1.668355E-03  5.000000E-01  9.999938E-01  1.866160E-03  0.000000E+00  1.698120E-03 -7.614992E-03  2.018310E-14 -8.968071E-01  0.000000E+00
  9.900000E-01  2.077792E-03  5.000000E-01  9.999938E-01  2.279730E-03  0.000000E+00 -4.860429E-04 -2.053536E-02  3.836009E-14 -7.405846E-01  0.000000E+00
  9.900000E-01  2.487229E-03  5.000000E-01  9.999938E-01  2.693300E-03  0.000000E+00 -1.217934E-04 -1.192094E-02  5.262390E-14 -7.196228E-01  0.000000E+00
  9.900000E-01  2.896651E-03  5.000000E-01  9.999938E-01  3.106855E-03  0.000000E+00  3.121879E-04 -7.361993E-03  6.308101E-14 -7.539901E-01  0.000000E+00
  9.900000E-01  3.306088E-03  5.000000E-01  9.999938E-01  3.520425E-03  0.000000E+00  4.552494E-03 -6.480954E-03  7.110622E-14 -7.179393E-01  0.000000E+00
  9.900000E-01  3.306088E-03  5.000000E-01  9.999938E-01  3.520425E-03  0.000000E+00  4.552494E-03 -6.480954E-03  7.110622E-14 -7.179393E-01  0.000000E+00
  9.897980E-01  3.407728E-03  5.000000E-01  9.997898E-01  3.623091E-03  0.000000E+00  5.760145E-03 -3.441061E-03  6.742909E-14 -6.678026E-01  0.000000E+00
  9.891900E-01  3.712628E-03  5.000000E-01  9.991756E-01  3.931069E-03  0.000000E+00  1.778438E-03 -8.232451E-04  4.868064E-14 -6.764063E-01  0.000000E+00
  9.881780E-01  4.220146E-03  5.000000E-01  9.981534E-01  4.443711E-03  0.000000E+00 -3.948451E-04  2.027436E-04  2.765292E-14 -6.809210E-01  0.000000E+00
  9.867570E-01  4.928963E-03  5.000000E-01  9.967181E-01  5.159683E-03  0.000000E+00 -1.779377E-03  8.728253E-04  1.207164E-14 -6.840898E-01  0.000000E+00
  9.849260E-01  5.835612E-03  5.000000E-01  9.948686E-01  6.075485E-03  0.000000E+00 -2.594664E-03  1.275010E-03  3.499619E-15 -6.914611E-01  0.000000E+00
  9.826810E-01  6.933657E-03  5.000000E-01  9.926009E-01  7.184614E-03  0.000000E+00 -2.855103E-03  1.386211E-03  3.645606E-17 -7.001527E-01  0.000000E+00
  9.800160E-01  8.213429E-03  5.000000E-01  9.899090E-01  8.477305E-03  0.000000E+00 -2.727335E-03  1.295898E-03 -7.507765E-16 -7.068214E-01  0.000000E+00
  9.769240E-01  9.660989E-03  5.000000E-01  9.867858E-01  9.939477E-03  0.000000E+00 -2.446319E-03  1.127450E-03 -5.673119E-16 -7.105600E-01  0.000000E+00
  9.733970E-01  1.125543E-02  5.000000E-01  9.832232E-01  1.155001E-02  0.000000E+00 -2.204738E-03  9.753625E-04 -2.512903E-16 -7.121586E-01  0.000000E+00
  9.694240E-01  1.297060E-02  5.000000E-01  9.792101E-01  1.328250E-02  0.000000E+00 -2.113265E-03  8.871103E-04 -5.874927E-17 -7.129468E-01  0.000000E+00
  9.649940E-01  1.478030E-02  5.000000E-01  9.747354E-01  1.511047E-02  0.000000E+00 -2.203170E-03  8.708410E-04  1.002161E-17 -7.143418E-01  0.000000E+00
  9.600960E-01  1.666506E-02  5.000000E-01  9.697879E-01  1.701425E-02  0.000000E+00 -2.452905E-03  9.139129E-04  1.711018E-17 -7.169524E-01  0.000000E+00
  9.547180E-01  1.860562E-02  5.000000E-01  9.643556E-01  1.897440E-02  0.000000E+00 -2.841048E-03  9.992644E-04  9.217699E-18 -7.191997E-01  0.000000E+00
  9.488510E-01  2.058382E-02  5.000000E-01  9.584294E-01  2.097257E-02  0.000000E+00 -3.344318E-03  1.095962E-03  2.754909E-18 -7.211758E-01  0.000000E+00
  9.424820E-01  2.258584E-02  5.000000E-01  9.519961E-01  2.299481E-02  0.000000E+00 -3.755239E-03  1.126092E-03  7.232512E-19 -7.355333E-01  0.000000E+00
  9.356020E-01  2.460297E-02  5.000000E-01  9.450467E-01  2.503229E-02  0.000000E+00 -3.403712E-03  9.349130E-04  1.107142E-18 -7.880473E-01  0.000000E+00
  9.282010E-01  2.663108E-02  5.000000E-01  9.375710E-01  2.708088E-02  0.000000E+00 -1.143373E-03  3.000759E-04  1.358442E-18 -8.901994E-01  0.000000E+00
  9.202710E-01  2.866749E-02  5.000000E-01  9.295609E-01  2.913784E-02  0.000000E+00  4.013042E-03 -9.439288E-04  5.852626E-18 -1.012234E+00  0.000000E+00
  9.118010E-01  3.070286E-02  5.000000E-01  9.210054E-01  3.119376E-02  0.000000E+00  1.150096E-02 -2.595779E-03  1.482549E-17 -1.103311E+00  0.000000E+00
  9.027810E-01  3.272456E-02  5.000000E-01  9.118944E-01  3.323587E-02  0.000000E+00  1.860458E-02 -3.983029E-03  2.335766E-17 -1.138439E+00  0.000000E+00
  8.932000E-01  3.472075E-02  5.000000E-01  9.022166E-01  3.525221E-02  0.000000E+00  2.275508E-02 -4.562771E-03  2.556292E-17 -1.130317E+00  0.000000E+00
  8.830490E-01  3.667761E-02  5.000000E-01  8.919632E-01  3.722883E-02  0.000000E+00  2.383150E-02 -4.418931E-03  2.110718E-17 -1.102814E+00  0.000000E+00
  8.723190E-01  3.857915E-02  5.000000E-01  8.811248E-01  3.914956E-02  0.000000E+00  2.331889E-02 -3.958945E-03  1.402808E-17 -1.070340E+00  0.000000E+00
  8.723190E-01  3.857915E-02  5.000000E-01  8.811248E-01  3.914956E-02  0.000000E+00  2.331889E-02 -3.958945E-03  1.402808E-17 -1.070340E+00  0.000000E+00
  8.610010E-01  4.040988E-02  5.000000E-01  8.696926E-01  4.099877E-02  0.000000E+00  2.251540E-02 -3.473770E-03  9.983669E-18 -1.037640E+00  0.000000E+00
  8.490890E-01  4.215557E-02  5.000000E-01  8.576603E-01  4.276208E-02  0.000000E+00  2.191994E-02 -3.051339E-03  7.715495E-18 -1.005600E+00  0.000000E+00
  8.365770E-01  4.380424E-02  5.000000E-01  8.450220E-01  4.442740E-02  0.000000E+00  2.152597E-02 -2.687422E-03  4.233077E-18 -9.746231E-01  0.000000E+00
  8.234620E-01  4.535044E-02  5.000000E-01  8.317747E-01  4.598921E-02  0.000000E+00  2.119858E-02 -2.368559E-03  3.206216E-18 -9.457672E-01  0.000000E+00
  8.097400E-01  4.679845E-02  5.000000E-01  8.179141E-01  4.745183E-02  0.000000E+00  2.085212E-02 -2.099295E-03  3.066681E-18 -9.210158E-01  0.000000E+00
  7.954150E-01  4.816908E-02  5.000000E-01  8.034445E-01  4.883629E-02  0.000000E+00  2.047592E-02 -1.899863E-03  2.925389E-18 -9.029867E-01  0.000000E+00
  7.804870E-01  4.950679E-02  5.000000E-01  7.883658E-01  5.018751E-02  0.000000E+00  2.012031E-02 -1.787339E-03  3.343186E-18 -8.934463E-01  0.000000E+00
  7.649630E-01  5.087170E-02  5.000000E-01  7.726851E-01  5.156619E-02  0.000000E+00  1.988351E-02 -1.746289E-03  2.498530E-18 -8.910201E-01  0.000000E+00
  7.488530E-01  5.228627E-02  5.000000E-01  7.564125E-01  5.299504E-02  0.000000E+00  1.982806E-02 -1.746400E-03  4.999255E-19 -8.928086E-01  0.000000E+00
  7.321700E-01  5.376095E-02  5.000000E-01  7.395611E-01  5.448462E-02  0.000000E+00  1.992803E-02 -1.774395E-03 -3.379581E-18 -8.972250E-01  0.000000E+00
  7.149290E-01  5.530705E-02  5.000000E-01  7.221460E-01  5.604632E-02  0.000000E+00  2.012773E-02 -1.824492E-03 -7.965949E-18 -9.034975E-01  0.000000E+00
  6.971500E-01  5.693498E-02  5.000000E-01  7.041876E-01  5.769068E-02  0.000000E+00  2.038770E-02 -1.890233E-03 -1.070167E-17 -9.108899E-01  0.000000E+00
  6.788570E-01  5.865090E-02  5.000000E-01  6.857099E-01  5.942393E-02  0.000000E+00  2.069463E-02 -1.960632E-03 -1.284082E-17 -9.181677E-01  0.000000E+00
  6.600760E-01  6.044721E-02  5.000000E-01  6.667393E-01  6.123837E-02  0.000000E+00  2.104751E-02 -2.018676E-03 -1.432021E-17 -9.235026E-01  0.000000E+00
  6.408370E-01  6.229813E-02  5.000000E-01  6.473061E-01  6.310797E-02  0.000000E+00  2.143834E-02 -2.043052E-03 -1.609214E-17 -9.248732E-01  0.000000E+00
  6.211780E-01  6.415529E-02  5.000000E-01  6.274487E-01  6.498388E-02  0.000000E+00  2.183645E-02 -2.016653E-03 -1.690644E-17 -9.209215E-01  0.000000E+00
  6.011430E-01  6.596471E-02  5.000000E-01  6.072114E-01  6.681157E-02  0.000000E+00  2.219811E-02 -1.932822E-03 -1.279345E-17 -9.113467E-01  0.000000E+00
  5.807790E-01  6.767317E-02  5.000000E-01  5.866418E-01  6.853727E-02  0.000000E+00  2.249302E-02 -1.793597E-03 -1.093762E-17 -8.965636E-01  0.000000E+00
  5.601410E-01  6.923516E-02  5.000000E-01  5.657955E-01  7.011503E-02  0.000000E+00  2.271680E-02 -1.604909E-03 -1.153992E-17 -8.773524E-01  0.000000E+00
  5.392850E-01  7.060570E-02  5.000000E-01  5.447290E-01  7.149940E-02  0.000000E+00  2.286824E-02 -1.384981E-03 -9.496386E-18 -8.555498E-01  0.000000E+00
  5.182680E-01  7.176982E-02  5.000000E-01  5.234998E-01  7.267527E-02  0.000000E+00  2.294474E-02 -1.167623E-03 -8.500154E-18 -8.341826E-01  0.000000E+00
  4.971500E-01  7.274793E-02  5.000000E-01  5.021686E-01  7.366326E-02  0.000000E+00  2.298416E-02 -9.744403E-04 -7.896748E-18 -8.153692E-01  0.000000E+00
  4.759900E-01  7.356137E-02  5.000000E-01  4.807950E-01  7.448491E-02  0.000000E+00  2.304696E-02 -8.084104E-04 -6.413649E-18 -7.997079E-01  0.000000E+00
  2.733630E-06 -4.947953E-04  5.000000E-01  2.813636E-06 -3.188267E-04  0.000000E+00  4.467888E-04 -1.767151E-02  1.354385E-18  1.103938E+00  0.000000E+00
  4.455870E-05 -1.441558E-03  5.000000E-01  4.506092E-05 -1.275147E-03  0.000000E+00  2.163938E-03 -2.111081E-02  2.092746E-17  1.076354E+00  0.000000E+00
  2.731490E-04 -2.984477E-03  5.000000E-01  2.759588E-04 -2.833641E-03  0.000000E+00  6.341328E-03 -2.407192E-02  2.725012E-17  9.604115E-01  0.000000E+00
  9.950900E-04 -4.955410E-03  5.000000E-01  1.005188E-03 -4.824470E-03  0.000000E+00  1.234513E-02 -2.457173E-02  2.521983E-17  7.572587E-01  0.000000E+00
  2.349870E-03 -7.051434E-03  5.000000E-01  2.373644E-03 -6.941653E-03  0.000000E+00  1.792542E-02 -2.355827E-02  2.490317E-17  5.528609E-01  0.000000E+00
  4.254460E-03 -9.204947E-03  5.000000E-01  4.297460E-03 -9.116905E-03  0.000000E+00  2.249747E-02 -2.240215E-02  1.421178E-17  3.835893E-01  0.000000E+00
  6.687140E-03 -1.135698E-02  5.000000E-01  6.754697E-03 -1.129067E-02  0.000000E+00  2.648903E-02 -2.105033E-02 -7.495651E-18  2.218218E-01  0.000000E+00
  9.634000E-03 -1.346984E-02  5.000000E-01  9.731305E-03 -1.342485E-02  0.000000E+00  2.977879E-02 -1.917096E-02 -1.884269E-17  5.706648E-02  0.000000E+00
  1.310530E-02 -1.547573E-02  5.000000E-01  1.323765E-02 -1.545099E-02  0.000000E+00  3.207531E-02 -1.662763E-02 -1.237949E-17 -1.063855E-01  0.000000E+00
  1.710810E-02 -1.732283E-02  5.000000E-01  1.728085E-02 -1.731673E-02  0.000000E+00  3.342973E-02 -1.394036E-02  9.784499E-18 -2.462271E-01  0.000000E+00
  2.163760E-02 -1.901187E-02  5.000000E-01  2.185608E-02 -1.902282E-02  0.000000E+00  3.420915E-02 -1.158306E-02  3.924874E-17 -3.531553E-01  0.000000E+00
  2.669190E-02 -2.055277E-02  5.000000E-01  2.696140E-02 -2.057928E-02  0.000000E+00  3.454815E-02 -9.487704E-03  5.975465E-17 -4.396766E-01  0.000000E+00
  3.228310E-02 -2.192149E-02  5.000000E-01  3.260904E-02 -2.196181E-02  0.000000E+00  3.440053E-02 -7.535172E-03  7.164641E-17 -5.154097E-01  0.000000E+00
  3.842170E-02 -2.310613E-02  5.000000E-01  3.880961E-02 -2.315842E-02  0.000000E+00  3.384296E-02 -5.805751E-03  7.484111E-17 -5.791178E-01  0.000000E+00
  4.511710E-02 -2.410773E-02  5.000000E-01  4.557260E-02 -2.417013E-02  0.000000E+00  3.300297E-02 -4.350270E-03  7.087720E-17 -6.293829E-01  0.000000E+00
  5.237940E-02 -2.493187E-02  5.000000E-01  5.290821E-02 -2.500259E-02  0.000000E+00  3.201619E-02 -3.178765E-03  6.543052E-17 -6.657450E-01  0.000000E+00
  6.021800E-02 -2.559457E-02  5.000000E-01  6.082593E-02 -2.567197E-02  0.000000E+00  3.103762E-02 -2.288113E-03  5.778456E-17 -6.881601E-01  0.000000E+00
  6.864140E-02 -2.612142E-02  5.000000E-01  6.933437E-02 -2.620415E-02  0.000000E+00  3.017141E-02 -1.635832E-03  4.806592E-17 -6.982265E-01  0.000000E+00
  7.765990E-02 -2.653375E-02  5.000000E-01  7.844391E-02 -2.662064E-02  0.000000E+00  2.941764E-02 -1.168270E-03  3.805899E-17 -6.976340E-01  0.000000E+00
  8.728340E-02 -2.685690E-02  5.000000E-01  8.816455E-02 -2.694704E-02  0.000000E+00  2.859090E-02 -8.521032E-04  3.057506E-17 -6.865965E-01  0.000000E+00
  9.752070E-02 -2.712316E-02  5.000000E-01  9.850519E-02 -2.721600E-02  0.000000E+00  2.720795E-02 -6.541889E-04  2.530737E-17 -6.647593E-01  0.000000E+00
  1.083810E-01 -2.736434E-02  5.000000E-01  1.094751E-01 -2.745961E-02  0.000000E+00  2.468903E-02 -5.424959E-04  2.060914E-17 -6.294255E-01  0.000000E+00
  1.198710E-01 -2.761564E-02  5.000000E-01  1.210811E-01 -2.771345E-02  0.000000E+00  2.093789E-02 -4.898281E-04  1.452732E-17 -5.723060E-01  0.000000E+00
  1.319970E-01 -2.791578E-02  5.000000E-01  1.333295E-01 -2.801662E-02  0.000000E+00  1.680336E-02 -4.679177E-04  9.391519E-18 -4.816459E-01  0.000000E+00
  1.319970E-01 -2.791578E-02  5.000000E-01  1.333295E-01 -2.801662E-02  0.000000E+00  1.680336E-02 -4.679177E-04  9.391519E-18 -4.816459E-01  0.000000E+00
  1.447640E-01 -2.829997E-02  5.000000E-01  1.462254E-01 -2.840469E-02  0.000000E+00  1.374485E-02 -4.707135E-04  5.003413E-18 -3.542244E-01  0.000000E+00
  1.581750E-01 -2.879874E-02  5.000000E-01  1.597718E-01 -2.890849E-02  0.000000E+00  1.279152E-02 -5.235518E-04  1.772764E-18 -2.117785E-01  0.000000E+00
  1.722290E-01 -2.942609E-02  5.000000E-01  1.739677E-01 -2.954217E-02  0.000000E+00  1.390420E-02 -6.465840E-04  4.088910E-19 -1.004863E-01  0.000000E+00
  1.869240E-01 -3.015858E-02  5.000000E-01  1.888110E-01 -3.028206E-02  0.000000E+00  1.632168E-02 -7.900635E-04 -6.057213E-19 -6.268934E-02  0.000000E+00
  2.022540E-01 -3.090828E-02  5.000000E-01  2.042957E-01 -3.103932E-02  0.000000E+00  1.916572E-02 -8.033213E-04  1.253499E-18 -1.077991E-01  0.000000E+00
  2.182110E-01 -3.149169E-02  5.000000E-01  2.204138E-01 -3.162863E-02  0.000000E+00  2.175681E-02 -5.749358E-04  1.912419E-18 -2.071083E-01  0.000000E+00
  2.347810E-01 -3.177083E-02  5.000000E-01  2.371511E-01 -3.191059E-02  0.000000E+00  2.365535E-02 -1.815112E-04  4.439084E-19 -3.152174E-01  0.000000E+00
  2.519470E-01 -3.174345E-02  5.000000E-01  2.544904E-01 -3.188293E-02  0.000000E+00  2.451737E-02  2.283927E-04  2.182892E-20 -4.010331E-01  0.000000E+00
  2.696890E-01 -3.143799E-02  5.000000E-01  2.724115E-01 -3.157438E-02  0.000000E+00  2.416636E-02  5.451515E-04 -1.012889E-18 -4.534889E-01  0.000000E+00
  2.879810E-01 -3.092054E-02  5.000000E-01  2.908881E-01 -3.105171E-02  0.000000E+00  2.283128E-02  6.910468E-04 -2.961016E-19 -4.693643E-01  0.000000E+00
  3.067920E-01 -3.030446E-02  5.000000E-01  3.098890E-01 -3.042941E-02  0.000000E+00  2.115388E-02  6.467536E-04  2.089393E-18 -4.494595E-01  0.000000E+00
  3.260870E-01 -2.974842E-02  5.000000E-01  3.293788E-01 -2.986776E-02  0.000000E+00  1.987891E-02  4.557444E-04  2.107285E-18 -4.025283E-01  0.000000E+00
  3.458260E-01 -2.941441E-02  5.000000E-01  3.493171E-01 -2.953038E-02  0.000000E+00  1.939774E-02  2.384615E-04  7.361581E-19 -3.511355E-01  0.000000E+00
  3.659650E-01 -2.927107E-02  5.000000E-01  3.696594E-01 -2.938558E-02  0.000000E+00  1.968447E-02  1.152420E-04  5.255372E-18 -3.210644E-01  0.000000E+00
  3.864540E-01 -2.918712E-02  5.000000E-01  3.903552E-01 -2.930080E-02  0.000000E+00  2.056035E-02  1.305118E-04  4.115790E-18 -3.248224E-01  0.000000E+00
  4.072410E-01 -2.901737E-02  5.000000E-01  4.113520E-01 -2.912933E-02  0.000000E+00  2.180502E-02  3.075473E-04 -2.112179E-18 -3.616383E-01  0.000000E+00
  4.282690E-01 -2.860854E-02  5.000000E-01  4.325923E-01 -2.871637E-02  0.000000E+00  2.315600E-02  6.713459E-04 -4.962925E-20 -4.228681E-01  0.000000E+00
  4.494800E-01 -2.780390E-02  5.000000E-01  4.540174E-01 -2.790361E-02  0.000000E+00  2.431395E-02  1.170392E-03  1.332093E-18 -4.932871E-01  0.000000E+00
  4.708130E-01 -2.656377E-02  5.000000E-01  4.755658E-01 -2.665096E-02  0.000000E+00  2.481199E-02  1.632129E-03 -2.379951E-19 -5.550588E-01  0.000000E+00
  4.922030E-01 -2.499336E-02  5.000000E-01  4.971717E-01 -2.506470E-02  0.000000E+00  2.383533E-02  1.868367E-03 -6.093222E-19 -5.959295E-01  0.000000E+00
  5.135860E-01 -2.320830E-02  5.000000E-01  5.187705E-01 -2.326161E-02  0.000000E+00  2.069694E-02  1.770800E-03  3.995844E-19 -6.039846E-01  0.000000E+00
  5.348990E-01 -2.132142E-02  5.000000E-01  5.402987E-01 -2.135569E-02  0.000000E+00  1.583109E-02  1.386522E-03 -1.063258E-18 -5.586998E-01  0.000000E+00
  5.560760E-01 -1.944397E-02  5.000000E-01  5.616895E-01 -1.945929E-02  0.000000E+00  1.092059E-02  9.432704E-04 -1.634730E-18 -4.449804E-01  0.000000E+00
  4.759900E-01  7.356137E-02  5.000000E-01  4.807950E-01  7.448491E-02  0.000000E+00  2.304696E-02 -8.084104E-04 -6.413649E-18 -7.997079E-01  0.000000E+00
  4.548480E-01  7.423054E-02  5.000000E-01  4.594396E-01  7.516084E-02  0.000000E+00  2.316985E-02 -6.684448E-04 -7.429238E-18 -7.870477E-01  0.000000E+00
  4.337860E-01  7.477764E-02  5.000000E-01  4.381650E-01  7.571346E-02  0.000000E+00  2.337374E-02 -5.408952E-04 -9.003028E-18 -7.757956E-01  0.000000E+00
  4.128620E-01  7.520351E-02  5.000000E-01  4.170298E-01  7.614363E-02  0.000000E+00  2.367066E-02 -3.900093E-04 -7.749122E-18 -7.624707E-01  0.000000E+00
  3.921340E-01  7.546746E-02  5.000000E-01  3.960925E-01  7.641024E-02  0.000000E+00  2.402040E-02 -1.861843E-04 -7.025777E-18 -7.439721E-01  0.000000E+00
  3.716590E-01  7.552658E-02  5.000000E-01  3.754108E-01  7.646996E-02  0.000000E+00  2.433800E-02  7.808053E-05 -6.615792E-18 -7.189477E-01  0.000000E+00
  3.514890E-01  7.534152E-02  5.000000E-01  3.550372E-01  7.628303E-02  0.000000E+00  2.455195E-02  4.008203E-04 -4.770738E-18 -6.871488E-01  0.000000E+00
  3.316730E-01  7.487920E-02  5.000000E-01  3.350212E-01  7.581605E-02  0.000000E+00  2.461591E-02  7.674981E-04 -3.753484E-18 -6.498066E-01  0.000000E+00
  3.122580E-01  7.412179E-02  5.000000E-01  3.154102E-01  7.505099E-02  0.000000E+00  2.449173E-02  1.133111E-03 -2.771632E-18 -6.107906E-01  0.000000E+00
  2.932850E-01  7.310334E-02  5.000000E-01  2.962457E-01  7.402226E-02  0.000000E+00  2.418531E-02  1.451714E-03 -2.432344E-18 -5.745985E-01  0.000000E+00
  2.747930E-01  7.187275E-02  5.000000E-01  2.775670E-01  7.277925E-02  0.000000E+00  2.376904E-02  1.714994E-03 -4.450970E-18 -5.434633E-01  0.000000E+00
  2.568150E-01  7.047240E-02  5.000000E-01  2.594075E-01  7.136476E-02  0.000000E+00  2.332792E-02  1.935620E-03 -6.268777E-18 -5.178444E-01  0.000000E+00
  2.393810E-01  6.893598E-02  5.000000E-01  2.417975E-01  6.981283E-02  0.000000E+00  2.292457E-02  2.130336E-03 -5.976530E-18 -4.976122E-01  0.000000E+00
  2.225160E-01  6.728870E-02  5.000000E-01  2.247623E-01  6.814892E-02  0.000000E+00  2.259385E-02  2.311867E-03 -4.443292E-18 -4.833718E-01  0.000000E+00
  2.062420E-01  6.554817E-02  5.000000E-01  2.083240E-01  6.639082E-02  0.000000E+00  2.233179E-02  2.456929E-03 -1.973995E-18 -4.791838E-01  0.000000E+00
  1.905750E-01  6.377133E-02  5.000000E-01  1.924988E-01  6.459604E-02  0.000000E+00  2.214602E-02  2.512464E-03 -2.407862E-18 -4.914341E-01  0.000000E+00
  1.755290E-01  6.205904E-02  5.000000E-01  1.773010E-01  6.286647E-02  0.000000E+00  2.216698E-02  2.498423E-03 -2.033302E-18 -5.200107E-01  0.000000E+00
  1.611160E-01  6.045013E-02  5.000000E-01  1.627425E-01  6.124132E-02  0.000000E+00  2.255785E-02  2.493365E-03 -7.302616E-19 -5.575767E-01  0.000000E+00
  1.473410E-01  5.894381E-02  5.000000E-01  1.488284E-01  5.971979E-02  0.000000E+00  2.333906E-02  2.543042E-03 -2.550894E-18 -5.965130E-01  0.000000E+00
  1.342110E-01  5.751971E-02  5.000000E-01  1.355659E-01  5.828132E-02  0.000000E+00  2.438634E-02  2.661468E-03 -1.307997E-18 -6.315824E-01  0.000000E+00
  1.217280E-01  5.615004E-02  5.000000E-01  1.229569E-01  5.689782E-02  0.000000E+00  2.552363E-02  2.848969E-03  1.791457E-18 -6.604293E-01  0.000000E+00
  1.098910E-01  5.480747E-02  5.000000E-01  1.110004E-01  5.554170E-02  0.000000E+00  2.662681E-02  3.112247E-03  4.191291E-18 -6.822773E-01  0.000000E+00
  9.869950E-02  5.346196E-02  5.000000E-01  9.969589E-02  5.418261E-02  0.000000E+00  2.765622E-02  3.467692E-03  5.597250E-18 -6.968880E-01  0.000000E+00
  8.814970E-02  5.208621E-02  5.000000E-01  8.903960E-02  5.279297E-02  0.000000E+00  2.863360E-02  3.941942E-03  8.925835E-18 -7.038621E-01  0.000000E+00
  8.814970E-02  5.208621E-02  5.000000E-01  8.903960E-02  5.279297E-02  0.000000E+00  2.863360E-02  3.941942E-03  8.925835E-18 -7.038621E-01  0.000000E+00
  7.823720E-02  5.065189E-02  5.000000E-01  7.902703E-02  5.134417E-02  0.000000E+00  2.960325E-02  4.578357E-03  1.472742E-17 -7.019394E-01  0.000000E+00
  6.895800E-02  4.912708E-02  5.000000E-01  6.965416E-02  4.980397E-02  0.000000E+00  3.057775E-02  5.419382E-03  1.791837E-17 -6.896289E-01  0.000000E+00
  6.030560E-02  4.748519E-02  5.000000E-01  6.091442E-02  4.814551E-02  0.000000E+00  3.154149E-02  6.520347E-03  1.932746E-17 -6.644632E-01  0.000000E+00
  5.227560E-02  4.569345E-02  5.000000E-01  5.280336E-02  4.633567E-02  0.000000E+00  3.243564E-02  7.944073E-03  1.668047E-17 -6.229143E-01  0.000000E+00
  4.486350E-02  4.372072E-02  5.000000E-01  4.531644E-02  4.434303E-02  0.000000E+00  3.311832E-02  9.713772E-03  1.295338E-17 -5.619232E-01  0.000000E+00
  3.806240E-02  4.154468E-02  5.000000E-01  3.844668E-02  4.214502E-02  0.000000E+00  3.340271E-02  1.182924E-02  8.859542E-18 -4.775630E-01  0.000000E+00
  3.186880E-02  3.914065E-02  5.000000E-01  3.219056E-02  3.971673E-02  0.000000E+00  3.304061E-02  1.419968E-02 -8.954959E-19 -3.665764E-01  0.000000E+00
  2.627530E-02  3.649897E-02  5.000000E-01  2.654059E-02  3.704838E-02  0.000000E+00  3.177093E-02  1.659781E-02 -6.409412E-18 -2.281256E-01  0.000000E+00
  2.127350E-02  3.362207E-02  5.000000E-01  2.148830E-02  3.414244E-02  0.000000E+00  2.946142E-02  1.874417E-02 -8.052560E-18 -6.221903E-02  0.000000E+00
  1.685790E-02  3.051714E-02  5.000000E-01  1.702813E-02  3.100616E-02  0.000000E+00  2.615578E-02  2.027283E-02 -1.307333E-17  1.255689E-01  0.000000E+00
  1.301460E-02  2.721953E-02  5.000000E-01  1.314603E-02  2.767527E-02  0.000000E+00  2.211247E-02  2.088396E-02 -1.872146E-17  3.255667E-01  0.000000E+00
  9.730790E-03  2.377489E-02  5.000000E-01  9.829072E-03  2.419585E-02  0.000000E+00  1.773915E-02  2.050445E-02 -2.309758E-17  5.286215E-01  0.000000E+00
  6.996180E-03  2.023845E-02  5.000000E-01  7.066857E-03  2.062372E-02  0.000000E+00  1.345247E-02  1.911681E-02 -2.438144E-17  7.195815E-01  0.000000E+00
  4.781010E-03  1.670232E-02  5.000000E-01  4.829325E-03  1.705188E-02  0.000000E+00  9.573742E-03  1.682311E-02 -2.200257E-17  8.847676E-01  0.000000E+00
  3.054950E-03  1.326261E-02  5.000000E-01  3.085841E-03  1.357745E-02  0.000000E+00  6.264469E-03  1.384994E-02 -1.895697E-17  1.019667E+00  0.000000E+00
  1.789910E-03  1.001510E-02  5.000000E-01  1.808031E-03  1.029716E-02  0.000000E+00  3.612077E-03  1.033603E-02 -1.800639E-17  1.119765E+00  0.000000E+00
  9.331870E-04  7.069710E-03  5.000000E-01  9.426597E-04  7.322040E-03  0.000000E+00  1.675087E-03  6.368555E-03 -1.787179E-17  1.181395E+00  0.000000E+00
  4.085430E-04  4.535960E-03  5.000000E-01  4.127195E-04  4.762712E-03  0.000000E+00  4.302283E-04  2.040038E-03 -1.757515E-17  1.207445E+00  0.000000E+00
  1.354760E-04  2.502075E-03  5.000000E-01  1.368960E-04  2.708296E-03  0.000000E+00 -1.999750E-04 -2.610037E-03 -2.165617E-17  1.205633E+00  0.000000E+00
  2.683130E-05  1.021015E-03  5.000000E-01  2.715457E-05  1.212286E-03  0.000000E+00 -3.187385E-04 -7.573912E-03 -2.888877E-17  1.184217E+00  0.000000E+00
  1.320070E-06  1.220815E-04  5.000000E-01  1.385807E-06  3.042774E-04  0.000000E+00 -1.967985E-04 -1.238085E-02 -3.003521E-17  1.145631E+00  0.000000E+00
 -5.188750E-08 -1.791549E-04  5.000000E-01  0.000000E+00  0.000000E+00  0.000000E+00 -4.322927E-05 -1.542756E-02 -1.891523E-17  1.111877E+00  0.000000E+00