 Title = "ADflow Slice Data"
Variables =  "CoordinateX"  "CoordinateY"  "CoordinateZ"  "XoC"  "YoC"  "ZoC" "VelocityX" "VelocityY" "VelocityZ" "CoefPressure" "Mach" 
Zone T= "Slice_0001 None Absolute Regular z = 0.50000000"
 Nodes =          192  Elements=          184  ZONETYPE=FELINESEG
 DATAPACKING=POINT
  5.560760E-01 -1.893787E-02  5.000000E-01  5.616895E-01 -1.895560E-02  0.000000E+00  1.505843E-02  1.097227E-03 -8.122670E-17 -1.683462E-01  0.000000E+00
  5.770550E-01 -1.737448E-02  5.000000E-01  5.828802E-01 -1.737643E-02  0.000000E+00  1.469505E-02  1.131191E-03 -1.593087E-17 -1.383675E-01  0.000000E+00
  5.977760E-01 -1.573249E-02  5.000000E-01  6.038104E-01 -1.571787E-02  0.000000E+00  1.433862E-02  1.180327E-03  2.291724E-17 -1.168470E-01  0.000000E+00
  6.181820E-01 -1.398928E-02  5.000000E-01  6.244224E-01 -1.395706E-02  0.000000E+00  1.385547E-02  1.235714E-03  3.460385E-17 -9.817270E-02  0.000000E+00
  6.382180E-01 -1.212155E-02  5.000000E-01  6.446607E-01 -1.207047E-02  0.000000E+00  1.317034E-02  1.282902E-03  3.551611E-17 -7.578855E-02  0.000000E+00
  6.578350E-01 -1.011925E-02  5.000000E-01  6.644757E-01 -1.004796E-02  0.000000E+00  1.228080E-02  1.305356E-03  3.654971E-17 -4.548663E-02  0.000000E+00
  6.769910E-01 -7.992554E-03  5.000000E-01  6.838251E-01 -7.899793E-03  0.000000E+00  1.123293E-02  1.292752E-03  3.607237E-17 -7.141451E-03  0.000000E+00
  6.956490E-01 -5.761324E-03  5.000000E-01  7.026714E-01 -5.646040E-03  0.000000E+00  1.008806E-02  1.241718E-03  2.721032E-17  3.650743E-02  0.000000E+00
  7.137810E-01 -3.459119E-03  5.000000E-01  7.209864E-01 -3.320595E-03  0.000000E+00  8.902987E-03  1.153304E-03  1.371033E-17  8.229765E-02  0.000000E+00
  7.313660E-01 -1.130722E-03  5.000000E-01  7.387490E-01 -9.686938E-04  0.000000E+00  7.720198E-03  1.035390E-03  3.988098E-18  1.276626E-01  0.000000E+00
  7.483850E-01  1.184254E-03  5.000000E-01  7.559398E-01  1.369651E-03  0.000000E+00  6.574835E-03  9.020732E-04  1.600801E-18  1.708941E-01  0.000000E+00
  7.648220E-01  3.460165E-03  5.000000E-01  7.725427E-01  3.668538E-03  0.000000E+00  5.512048E-03  7.676972E-04  2.726804E-18  2.110787E-01  0.000000E+00
  7.806630E-01  5.679460E-03  5.000000E-01  7.885436E-01  5.910236E-03  0.000000E+00  4.601401E-03  6.379093E-04 -4.173675E-18  2.485457E-01  0.000000E+00
  7.958970E-01  7.774264E-03  5.000000E-01  8.039314E-01  8.026186E-03  0.000000E+00  3.935522E-03  5.122551E-04 -1.177392E-17  2.848462E-01  0.000000E+00
  8.105170E-01  9.561104E-03  5.000000E-01  8.186990E-01  9.831063E-03  0.000000E+00  3.576894E-03  3.984732E-04 -7.046621E-18  3.172846E-01  0.000000E+00
  8.245160E-01  1.094833E-02  5.000000E-01  8.328393E-01  1.123229E-02  0.000000E+00  3.512608E-03  3.040731E-04  1.718274E-18  3.404973E-01  0.000000E+00
  8.378940E-01  1.193399E-02  5.000000E-01  8.463523E-01  1.222790E-02  0.000000E+00  3.681664E-03  2.242762E-04  2.106177E-18  3.539685E-01  0.000000E+00
  8.506490E-01  1.256055E-02  5.000000E-01  8.592361E-01  1.286079E-02  0.000000E+00  4.018111E-03  1.499701E-04 -6.057481E-19  3.606621E-01  0.000000E+00
  8.627850E-01  1.288655E-02  5.000000E-01  8.714946E-01  1.319007E-02  0.000000E+00  4.467713E-03  7.395090E-05  2.169626E-18  3.631133E-01  0.000000E+00
  8.743060E-01  1.297167E-02  5.000000E-01  8.831319E-01  1.327605E-02  0.000000E+00  4.986735E-03 -7.689227E-06  6.540686E-18  3.624682E-01  0.000000E+00
  8.852170E-01  1.286760E-02  5.000000E-01  8.941530E-01  1.317093E-02  0.000000E+00  5.540801E-03 -9.635296E-05  7.049880E-18  3.593669E-01  0.000000E+00
  8.955250E-01  1.261534E-02  5.000000E-01  9.045651E-01  1.291613E-02  0.000000E+00  6.105789E-03 -1.920502E-04  5.233654E-18  3.543342E-01  0.000000E+00
  9.052400E-01  1.224788E-02  5.000000E-01  9.143782E-01  1.254496E-02  0.000000E+00  6.668368E-03 -2.947628E-04  2.738562E-18  3.477781E-01  0.000000E+00
  9.143710E-01  1.179085E-02  5.000000E-01  9.236013E-01  1.208332E-02  0.000000E+00  7.227337E-03 -4.072856E-04 -5.600044E-18  3.401307E-01  0.000000E+00
  9.143710E-01  1.179085E-02  5.000000E-01  9.236013E-01  1.208332E-02  0.000000E+00  7.227337E-03 -4.072856E-04 -5.600044E-18  3.401307E-01  0.000000E+00
  9.229270E-01  1.125914E-02  5.000000E-01  9.322437E-01  1.154624E-02  0.000000E+00  7.793034E-03 -5.351672E-04 -1.869838E-17  3.316312E-01  0.000000E+00
  9.309180E-01  1.066201E-02  5.000000E-01  9.403154E-01  1.094308E-02  0.000000E+00  8.382864E-03 -6.836924E-04 -3.717990E-17  3.220271E-01  0.000000E+00
  9.383550E-01  1.000809E-02  5.000000E-01  9.478274E-01  1.028256E-02  0.000000E+00  9.017572E-03 -8.578057E-04 -5.848272E-17  3.108533E-01  0.000000E+00
  9.452490E-01  9.306145E-03  5.000000E-01  9.547910E-01  9.573531E-03  0.000000E+00  9.720781E-03 -1.064267E-03 -5.483747E-17  2.977253E-01  0.000000E+00
  9.516100E-01  8.564613E-03  5.000000E-01  9.612163E-01  8.824513E-03  0.000000E+00  1.051909E-02 -1.311717E-03  4.020006E-17  2.822440E-01  0.000000E+00
  9.574470E-01  7.793009E-03  5.000000E-01  9.671122E-01  8.045120E-03  0.000000E+00  1.144027E-02 -1.609049E-03  3.452594E-16  2.638088E-01  0.000000E+00
  9.627730E-01  7.002579E-03  5.000000E-01  9.724919E-01  7.246711E-03  0.000000E+00  1.251260E-02 -1.965801E-03  9.389628E-16  2.417333E-01  0.000000E+00
  9.675950E-01  6.206766E-03  5.000000E-01  9.773626E-01  6.442864E-03  0.000000E+00  1.376730E-02 -2.391550E-03  1.533536E-15  2.152974E-01  0.000000E+00
  9.719240E-01  5.420684E-03  5.000000E-01  9.817353E-01  5.648847E-03  0.000000E+00  1.524500E-02 -2.896592E-03  9.702502E-16  1.836737E-01  0.000000E+00
  9.757700E-01  4.660758E-03  5.000000E-01  9.856201E-01  4.881250E-03  0.000000E+00  1.700938E-02 -3.497353E-03 -2.604643E-15  1.460315E-01  0.000000E+00
  9.791410E-01  3.943524E-03  5.000000E-01  9.890252E-01  4.156776E-03  0.000000E+00  1.916000E-02 -4.219362E-03 -8.953199E-15  1.014707E-01  0.000000E+00
  9.820450E-01  3.284898E-03  5.000000E-01  9.919585E-01  3.491501E-03  0.000000E+00  2.181525E-02 -5.094026E-03 -9.799342E-15  4.864779E-02  0.000000E+00
  9.844890E-01  2.699658E-03  5.000000E-01  9.944272E-01  2.900353E-03  0.000000E+00  2.503941E-02 -6.145683E-03  1.371668E-14 -1.414377E-02  0.000000E+00
  9.864800E-01  2.201126E-03  5.000000E-01  9.964383E-01  2.396789E-03  0.000000E+00  2.876115E-02 -7.329808E-03  7.433628E-14 -8.734948E-02  0.000000E+00
  9.880230E-01  1.801036E-03  5.000000E-01  9.979968E-01  1.992660E-03  0.000000E+00  3.246778E-02 -8.448304E-03  1.287774E-13 -1.779405E-01  0.000000E+00
  9.891220E-01  1.508638E-03  5.000000E-01  9.991069E-01  1.697310E-03  0.000000E+00  3.594089E-02 -9.732656E-03  1.411885E-14 -2.867528E-01  0.000000E+00
  9.897810E-01  1.330482E-03  5.000000E-01  9.997726E-01  1.517356E-03  0.000000E+00  5.278574E-02 -1.244886E-02 -4.184213E-13 -3.055381E-01  0.000000E+00
  9.900000E-01  1.270675E-03  5.000000E-01  9.999938E-01  1.456945E-03  0.000000E+00  3.651136E-02 -2.263045E-03 -4.373769E-13 -6.802810E-01  0.000000E+00
  9.900000E-01  1.680176E-03  5.000000E-01  9.999938E-01  1.870580E-03  0.000000E+00  2.127416E-03 -7.784999E-03  6.020493E-14 -9.796741E-01  0.000000E+00
  9.900000E-01  2.089677E-03  5.000000E-01  9.999938E-01  2.284214E-03  0.000000E+00 -5.416221E-04 -2.193673E-02  3.001525E-13 -8.244381E-01  0.000000E+00
  9.900000E-01  2.499178E-03  5.000000E-01  9.999938E-01  2.697849E-03  0.000000E+00 -1.399974E-04 -1.349461E-02  2.905171E-13 -7.967590E-01  0.000000E+00
  9.900000E-01  2.908664E-03  5.000000E-01  9.999938E-01  3.111468E-03  0.000000E+00  3.199889E-04 -8.318578E-03  2.114940E-13 -8.266905E-01  0.000000E+00
  9.900000E-01  3.318164E-03  5.000000E-01  9.999938E-01  3.525103E-03  0.000000E+00  4.464909E-03 -6.754076E-03  1.538207E-13 -7.914091E-01  0.000000E+00
  9.900000E-01  3.318164E-03  5.000000E-01  9.999938E-01  3.525103E-03  0.000000E+00  4.464909E-03 -6.754076E-03  1.538207E-13 -7.914091E-01  0.000000E+00
  9.897980E-01  3.422241E-03  5.000000E-01  9.997897E-01  3.630230E-03  0.000000E+00  5.427494E-03 -3.334362E-03  1.210101E-13 -7.432061E-01  0.000000E+00
  9.891900E-01  3.734465E-03  5.000000E-01  9.991756E-01  3.945606E-03  0.000000E+00  1.116580E-03 -5.100573E-04  8.311184E-14 -7.512773E-01  0.000000E+00
  9.881780E-01  4.254150E-03  5.000000E-01  9.981534E-01  4.470537E-03  0.000000E+00 -1.276622E-03  6.581530E-04  4.684432E-14 -7.584091E-01  0.000000E+00
  9.867570E-01  4.979992E-03  5.000000E-01  9.967180E-01  5.203706E-03  0.000000E+00 -2.637856E-03  1.332340E-03  2.074548E-14 -7.653044E-01  0.000000E+00
  9.849260E-01  5.908470E-03  5.000000E-01  9.948686E-01  6.141557E-03  0.000000E+00 -3.242771E-03  1.634219E-03  6.353763E-15 -7.751298E-01  0.000000E+00
  9.826810E-01  7.033095E-03  5.000000E-01  9.926009E-01  7.277535E-03  0.000000E+00 -3.245809E-03  1.615498E-03  5.223777E-16 -7.843123E-01  0.000000E+00
  9.800160E-01  8.344120E-03  5.000000E-01  9.899090E-01  8.601794E-03  0.000000E+00 -2.936209E-03  1.430016E-03 -8.156898E-16 -7.899079E-01  0.000000E+00
  9.769240E-01  9.827463E-03  5.000000E-01  9.867858E-01  1.010011E-02  0.000000E+00 -2.611506E-03  1.232741E-03 -6.089217E-16 -7.920691E-01  0.000000E+00
  9.733970E-01  1.146198E-02  5.000000E-01  9.832232E-01  1.175112E-02  0.000000E+00 -2.457974E-03  1.111611E-03 -2.267185E-16 -7.928127E-01  0.000000E+00
  9.694240E-01  1.322115E-02  5.000000E-01  9.792101E-01  1.352806E-02  0.000000E+00 -2.533816E-03  1.090161E-03 -2.553213E-17 -7.940543E-01  0.000000E+00
  9.649940E-01  1.507827E-02  5.000000E-01  9.747354E-01  1.540392E-02  0.000000E+00 -2.835940E-03  1.161066E-03  3.290481E-17 -7.954317E-01  0.000000E+00
  9.600960E-01  1.701312E-02  5.000000E-01  9.697879E-01  1.735830E-02  0.000000E+00 -3.355607E-03  1.294181E-03  2.919146E-17 -7.959098E-01  0.000000E+00
  9.547180E-01  1.900554E-02  5.000000E-01  9.643556E-01  1.937083E-02  0.000000E+00 -3.947455E-03  1.403843E-03 -3.671233E-18 -8.037791E-01  0.000000E+00
  9.488510E-01  2.103614E-02  5.000000E-01  9.584294E-01  2.142194E-02  0.000000E+00 -4.021080E-03  1.309739E-03 -3.439207E-17 -8.427259E-01  0.000000E+00
  9.424820E-01  2.308969E-02  5.000000E-01  9.519961E-01  2.349621E-02  0.000000E+00 -2.409686E-03  7.368530E-04 -1.710283E-17 -9.307925E-01  0.000000E+00
  9.356020E-01  2.515569E-02  5.000000E-01  9.450467E-01  2.558307E-02  0.000000E+00  2.143610E-03 -5.718783E-04  6.586443E-17 -1.048071E+00  0.000000E+00
  9.282010E-01  2.722799E-02  5.000000E-01  9.375709E-01  2.767629E-02  0.000000E+00  9.540362E-03 -2.495903E-03  1.756520E-16 -1.144676E+00  0.000000E+00
  9.202710E-01  2.930148E-02  5.000000E-01  9.295609E-01  2.977071E-02  0.000000E+00  1.727565E-02 -4.303813E-03  2.760868E-16 -1.187562E+00  0.000000E+00
  9.118010E-01  3.136399E-02  5.000000E-01  9.210054E-01  3.185404E-02  0.000000E+00  2.234938E-02 -5.234662E-03  3.774963E-16 -1.183307E+00  0.000000E+00
  9.027810E-01  3.339948E-02  5.000000E-01  9.118943E-01  3.391008E-02  0.000000E+00  2.407871E-02 -5.231898E-03  4.383309E-16 -1.155953E+00  0.000000E+00
  8.932000E-01  3.539223E-02  5.000000E-01  9.022166E-01  3.592294E-02  0.000000E+00  2.385625E-02 -4.758808E-03  3.894813E-16 -1.121882E+00  0.000000E+00
  8.830490E-01  3.732398E-02  5.000000E-01  8.919632E-01  3.787420E-02  0.000000E+00  2.316096E-02 -4.203861E-03  2.636310E-16 -1.086489E+00  0.000000E+00
  8.723190E-01  3.917383E-02  5.000000E-01  8.811248E-01  3.974272E-02  0.000000E+00  2.262935E-02 -3.698850E-03  1.400500E-16 -1.050418E+00  0.000000E+00
  8.723190E-01  3.917383E-02  5.000000E-01  8.811248E-01  3.974272E-02  0.000000E+00  2.262935E-02 -3.698850E-03  1.400500E-16 -1.050418E+00  0.000000E+00
  8.610010E-01  4.092116E-02  5.000000E-01  8.696926E-01  4.150769E-02  0.000000E+00  2.228311E-02 -3.241057E-03  6.499588E-17 -1.013437E+00  0.000000E+00
  8.490890E-01  4.254681E-02  5.000000E-01  8.576603E-01  4.314975E-02  0.000000E+00  2.196176E-02 -2.805085E-03  3.395518E-17 -9.756300E-01  0.000000E+00
  8.365770E-01  4.403507E-02  5.000000E-01  8.450220E-01  4.465303E-02  0.000000E+00  2.154776E-02 -2.386727E-03  2.417939E-17 -9.379572E-01  0.000000E+00
  8.234620E-01  4.537970E-02  5.000000E-01  8.317746E-01  4.601123E-02  0.000000E+00  2.101368E-02 -2.005347E-03  3.032528E-17 -9.026812E-01  0.000000E+00
  8.097400E-01  4.659029E-02  5.000000E-01  8.179141E-01  4.723405E-02  0.000000E+00  2.039441E-02 -1.695263E-03  4.851688E-17 -8.736594E-01  0.000000E+00
  7.954150E-01  4.770416E-02  5.000000E-01  8.034445E-01  4.835916E-02  0.000000E+00  1.975604E-02 -1.497816E-03  6.605162E-17 -8.558695E-01  0.000000E+00
  7.804870E-01  4.879985E-02  5.000000E-01  7.883658E-01  4.946592E-02  0.000000E+00  1.920242E-02 -1.440147E-03  6.960656E-17 -8.527513E-01  0.000000E+00
  7.649630E-01  4.998571E-02  5.000000E-01  7.726851E-01  5.066374E-02  0.000000E+00  1.889267E-02 -1.494109E-03  5.745066E-17 -8.619051E-01  0.000000E+00
  7.488530E-01  5.130519E-02  5.000000E-01  7.564125E-01  5.199654E-02  0.000000E+00  1.892286E-02 -1.608182E-03  3.503435E-17 -8.776404E-01  0.000000E+00
  7.321700E-01  5.277509E-02  5.000000E-01  7.395611E-01  5.348128E-02  0.000000E+00  1.923551E-02 -1.757286E-03  1.347122E-17 -8.959814E-01  0.000000E+00
  7.149290E-01  5.440499E-02  5.000000E-01  7.221460E-01  5.512764E-02  0.000000E+00  1.970894E-02 -1.922779E-03  1.515487E-18 -9.141105E-01  0.000000E+00
  6.971500E-01  5.619153E-02  5.000000E-01  7.041876E-01  5.693221E-02  0.000000E+00  2.024243E-02 -2.079485E-03 -2.917437E-18 -9.294278E-01  0.000000E+00
  6.788570E-01  5.811149E-02  5.000000E-01  6.857099E-01  5.887155E-02  0.000000E+00  2.078372E-02 -2.195862E-03 -2.993167E-18 -9.393250E-01  0.000000E+00
  6.600760E-01  6.011120E-02  5.000000E-01  6.667393E-01  6.089144E-02  0.000000E+00  2.130179E-02 -2.244277E-03 -9.304409E-19 -9.420121E-01  0.000000E+00
  6.408370E-01  6.211858E-02  5.000000E-01  6.473061E-01  6.291909E-02  0.000000E+00  2.174784E-02 -2.222564E-03 -1.564423E-18 -9.379931E-01  0.000000E+00
  6.211780E-01  6.408568E-02  5.000000E-01  6.274486E-01  6.490605E-02  0.000000E+00  2.209063E-02 -2.145650E-03 -6.063503E-18 -9.290013E-01  0.000000E+00
  6.011430E-01  6.597334E-02  5.000000E-01  6.072114E-01  6.681276E-02  0.000000E+00  2.234799E-02 -2.025187E-03 -1.116883E-17 -9.162680E-01  0.000000E+00
  5.807790E-01  6.774583E-02  5.000000E-01  5.866418E-01  6.860315E-02  0.000000E+00  2.255051E-02 -1.872582E-03 -1.378224E-17 -9.007642E-01  0.000000E+00
  5.601410E-01  6.937752E-02  5.000000E-01  5.657955E-01  7.025131E-02  0.000000E+00  2.272442E-02 -1.696760E-03 -1.293690E-17 -8.831943E-01  0.000000E+00
  5.392850E-01  7.084407E-02  5.000000E-01  5.447290E-01  7.173266E-02  0.000000E+00  2.288427E-02 -1.504410E-03 -1.045899E-17 -8.641787E-01  0.000000E+00
  5.182680E-01  7.212978E-02  5.000000E-01  5.234998E-01  7.303135E-02  0.000000E+00  2.302947E-02 -1.306120E-03 -7.070298E-18 -8.446666E-01  0.000000E+00
  4.971500E-01  7.323321E-02  5.000000E-01  5.021686E-01  7.414592E-02  0.000000E+00  2.316666E-02 -1.108820E-03 -2.964380E-18 -8.253212E-01  0.000000E+00
  4.759900E-01  7.415346E-02  5.000000E-01  4.807950E-01  7.507546E-02  0.000000E+00  2.331148E-02 -9.125554E-04  1.266394E-18 -8.062555E-01  0.000000E+00
  2.733630E-06 -4.852773E-04  5.000000E-01  2.813636E-06 -3.167331E-04  0.000000E+00  4.691259E-04 -1.841268E-02  2.681623E-15  1.096916E+00  0.000000E+00
  4.455870E-05 -1.425612E-03  5.000000E-01  4.506092E-05 -1.266560E-03  0.000000E+00  2.260974E-03 -2.191358E-02  2.168890E-15  1.067590E+00  0.000000E+00
  2.731490E-04 -2.957037E-03  5.000000E-01  2.759588E-04 -2.813444E-03  0.000000E+00  6.598424E-03 -2.486628E-02  1.084058E-15  9.467408E-01  0.000000E+00
  9.950900E-04 -4.910529E-03  5.000000E-01  1.005188E-03 -4.786656E-03  0.000000E+00  1.278472E-02 -2.522060E-02  9.921799E-16  7.368867E-01  0.000000E+00
  2.349870E-03 -6.984178E-03  5.000000E-01  2.373644E-03 -6.881238E-03  0.000000E+00  1.847408E-02 -2.401167E-02  1.280409E-15  5.277647E-01  0.000000E+00
  4.254460E-03 -9.111252E-03  5.000000E-01  4.297460E-03 -9.029784E-03  0.000000E+00  2.308595E-02 -2.269238E-02  1.064915E-15  3.564991E-01  0.000000E+00
  6.687140E-03 -1.123320E-02  5.000000E-01  6.754697E-03 -1.117315E-02  0.000000E+00  2.708223E-02 -2.120475E-02  4.281112E-16  1.939492E-01  0.000000E+00
  9.634000E-03 -1.331253E-02  5.000000E-01  9.731305E-03 -1.327347E-02  0.000000E+00  3.034249E-02 -1.920485E-02 -1.100694E-16  2.879214E-02  0.000000E+00
  1.310530E-02 -1.528170E-02  5.000000E-01  1.323765E-02 -1.526252E-02  0.000000E+00  3.257144E-02 -1.655434E-02 -2.938873E-16 -1.349524E-01  0.000000E+00
  1.710810E-02 -1.708904E-02  5.000000E-01  1.728085E-02 -1.708810E-02  0.000000E+00  3.383586E-02 -1.378380E-02 -2.519363E-16 -2.749016E-01  0.000000E+00
  2.163760E-02 -1.873514E-02  5.000000E-01  2.185608E-02 -1.875082E-02  0.000000E+00  3.452564E-02 -1.136991E-02 -1.601390E-16 -3.817038E-01  0.000000E+00
  2.669190E-02 -2.022969E-02  5.000000E-01  2.696140E-02 -2.026046E-02  0.000000E+00  3.478554E-02 -9.239437E-03 -7.828636E-17 -4.678379E-01  0.000000E+00
  3.228310E-02 -2.154855E-02  5.000000E-01  3.260904E-02 -2.159263E-02  0.000000E+00  3.457366E-02 -7.268758E-03 -1.133991E-17 -5.429882E-01  0.000000E+00
  3.842170E-02 -2.267964E-02  5.000000E-01  3.880961E-02 -2.273514E-02  0.000000E+00  3.397267E-02 -5.534104E-03  3.442454E-17 -6.061089E-01  0.000000E+00
  4.511710E-02 -2.362372E-02  5.000000E-01  4.557260E-02 -2.368875E-02  0.000000E+00  3.311053E-02 -4.081406E-03  5.825319E-17 -6.559331E-01  0.000000E+00
  5.237940E-02 -2.438607E-02  5.000000E-01  5.290821E-02 -2.445880E-02  0.000000E+00  3.210928E-02 -2.915524E-03  7.064287E-17 -6.920500E-01  0.000000E+00
  6.021800E-02 -2.498235E-02  5.000000E-01  6.082593E-02 -2.506110E-02  0.000000E+00  3.108717E-02 -2.028697E-03  7.867890E-17 -7.144066E-01  0.000000E+00
  6.864140E-02 -2.543778E-02  5.000000E-01  6.933437E-02 -2.552112E-02  0.000000E+00  3.009490E-02 -1.376687E-03  7.953856E-17 -7.246137E-01  0.000000E+00
  7.765990E-02 -2.577333E-02  5.000000E-01  7.844390E-02 -2.586006E-02  0.000000E+00  2.911781E-02 -9.086196E-04  6.962788E-17 -7.244784E-01  0.000000E+00
  8.728340E-02 -2.601407E-02  5.000000E-01  8.816455E-02 -2.610323E-02  0.000000E+00  2.810594E-02 -5.975928E-04  5.576573E-17 -7.143702E-01  0.000000E+00
  9.752070E-02 -2.619216E-02  5.000000E-01  9.850519E-02 -2.628311E-02  0.000000E+00  2.693564E-02 -4.173473E-04  4.851633E-17 -6.942398E-01  0.000000E+00
  1.083810E-01 -2.633945E-02  5.000000E-01  1.094751E-01 -2.643190E-02  0.000000E+00  2.544953E-02 -3.411311E-04  5.216605E-17 -6.634481E-01  0.000000E+00
  1.198710E-01 -2.649165E-02  5.000000E-01  1.210811E-01 -2.658563E-02  0.000000E+00  2.359618E-02 -3.474504E-04  6.241643E-17 -6.202143E-01  0.000000E+00
  1.319970E-01 -2.668853E-02  5.000000E-01  1.333295E-01 -2.678450E-02  0.000000E+00  2.155981E-02 -4.105950E-04  7.198732E-17 -5.628206E-01  0.000000E+00
  1.319970E-01 -2.668853E-02  5.000000E-01  1.333295E-01 -2.678450E-02  0.000000E+00  2.155981E-02 -4.105950E-04  7.198732E-17 -5.628206E-01  0.000000E+00
  1.447640E-01 -2.696744E-02  5.000000E-01  1.462254E-01 -2.706623E-02  0.000000E+00  1.977610E-02 -5.086301E-04  8.574722E-17 -4.918549E-01  0.000000E+00
  1.581750E-01 -2.736271E-02  5.000000E-01  1.597718E-01 -2.746549E-02  0.000000E+00  1.873939E-02 -6.320419E-04  1.035592E-16 -4.137132E-01  0.000000E+00
  1.722290E-01 -2.789475E-02  5.000000E-01  1.739676E-01 -2.800289E-02  0.000000E+00  1.869921E-02 -7.700499E-04  1.212012E-16 -3.426979E-01  0.000000E+00
  1.869240E-01 -2.855049E-02  5.000000E-01  1.888110E-01 -2.866525E-02  0.000000E+00  1.950571E-02 -8.782115E-04  1.358576E-16 -2.971598E-01  0.000000E+00
  2.022540E-01 -2.925777E-02  5.000000E-01  2.042957E-01 -2.937967E-02  0.000000E+00  2.069822E-02 -8.539319E-04  1.390535E-16 -2.906912E-01  0.000000E+00
  2.182110E-01 -2.985431E-02  5.000000E-01  2.204138E-01 -2.998224E-02  0.000000E+00  2.178972E-02 -6.395834E-04  1.165314E-16 -3.198071E-01  0.000000E+00
  2.347810E-01 -3.021324E-02  5.000000E-01  2.371511E-01 -3.034479E-02  0.000000E+00  2.248888E-02 -3.184826E-04  5.446740E-17 -3.633371E-01  0.000000E+00
  2.519470E-01 -3.032436E-02  5.000000E-01  2.544904E-01 -3.045703E-02  0.000000E+00  2.263316E-02  5.472676E-06 -2.631161E-17 -4.007595E-01  0.000000E+00
  2.696890E-01 -3.019610E-02  5.000000E-01  2.724115E-01 -3.032748E-02  0.000000E+00  2.217316E-02  2.797719E-04 -9.015317E-17 -4.213019E-01  0.000000E+00
  2.879810E-01 -2.985935E-02  5.000000E-01  2.908881E-01 -2.998733E-02  0.000000E+00  2.127776E-02  4.652400E-04 -1.192817E-16 -4.204130E-01  0.000000E+00
  3.067920E-01 -2.937500E-02  5.000000E-01  3.098890E-01 -2.949808E-02  0.000000E+00  2.029396E-02  5.426544E-04 -1.063689E-16 -3.990913E-01  0.000000E+00
  3.260870E-01 -2.883376E-02  5.000000E-01  3.293788E-01 -2.895139E-02  0.000000E+00  1.957384E-02  5.227301E-04 -6.317301E-17 -3.644494E-01  0.000000E+00
  3.458260E-01 -2.833450E-02  5.000000E-01  3.493171E-01 -2.844708E-02  0.000000E+00  1.926376E-02  4.661971E-04 -1.543030E-17 -3.301168E-01  0.000000E+00
  3.659650E-01 -2.787698E-02  5.000000E-01  3.696594E-01 -2.798495E-02  0.000000E+00  1.928849E-02  4.417142E-04  2.942653E-17 -3.087496E-01  0.000000E+00
  3.864540E-01 -2.741051E-02  5.000000E-01  3.903552E-01 -2.751377E-02  0.000000E+00  1.948208E-02  4.717189E-04  5.556741E-17 -3.034585E-01  0.000000E+00
  4.072410E-01 -2.688027E-02  5.000000E-01  4.113520E-01 -2.697818E-02  0.000000E+00  1.963961E-02  5.544984E-04  3.425675E-17 -3.096093E-01  0.000000E+00
  4.282690E-01 -2.623077E-02  5.000000E-01  4.325923E-01 -2.632212E-02  0.000000E+00  1.954769E-02  6.816880E-04 -4.309117E-17 -3.193748E-01  0.000000E+00
  4.494800E-01 -2.540478E-02  5.000000E-01  4.540174E-01 -2.548779E-02  0.000000E+00  1.907732E-02  8.250124E-04 -1.536164E-16 -3.236097E-01  0.000000E+00
  4.708130E-01 -2.438235E-02  5.000000E-01  4.755658E-01 -2.445504E-02  0.000000E+00  1.826547E-02  9.410787E-04 -2.401674E-16 -3.140800E-01  0.000000E+00
  4.922030E-01 -2.319322E-02  5.000000E-01  4.971717E-01 -2.325390E-02  0.000000E+00  1.728106E-02  1.012315E-03 -2.612304E-16 -2.881654E-01  0.000000E+00
  5.135860E-01 -2.186965E-02  5.000000E-01  5.187705E-01 -2.191697E-02  0.000000E+00  1.633111E-02  1.051569E-03 -2.226514E-16 -2.500095E-01  0.000000E+00
  5.348990E-01 -2.044100E-02  5.000000E-01  5.402987E-01 -2.047390E-02  0.000000E+00  1.557568E-02  1.075197E-03 -1.551229E-16 -2.073484E-01  0.000000E+00
  5.560760E-01 -1.893787E-02  5.000000E-01  5.616895E-01 -1.895560E-02  0.000000E+00  1.505843E-02  1.097227E-03 -8.122670E-17 -1.683462E-01  0.000000E+00
  4.759900E-01  7.415346E-02  5.000000E-01  4.807950E-01  7.507546E-02  0.000000E+00  2.331148E-02 -9.125554E-04  1.266394E-18 -8.062555E-01  0.000000E+00
  4.548480E-01  7.488941E-02  5.000000E-01  4.594396E-01  7.581884E-02  0.000000E+00  2.347113E-02 -7.169855E-04  6.565898E-18 -7.874297E-01  0.000000E+00
  4.337860E-01  7.544291E-02  5.000000E-01  4.381650E-01  7.637793E-02  0.000000E+00  2.364710E-02 -5.188818E-04  1.218300E-17 -7.684323E-01  0.000000E+00
  4.128620E-01  7.581191E-02  5.000000E-01  4.170298E-01  7.675065E-02  0.000000E+00  2.384087E-02 -3.067625E-04  1.652319E-17 -7.481377E-01  0.000000E+00
  3.921340E-01  7.598107E-02  5.000000E-01  3.960925E-01  7.692152E-02  0.000000E+00  2.403882E-02 -6.971549E-05  1.904555E-17 -7.253765E-01  0.000000E+00
  3.716590E-01  7.593398E-02  5.000000E-01  3.754108E-01  7.687395E-02  0.000000E+00  2.421020E-02  1.956601E-04  1.996239E-17 -6.995202E-01  0.000000E+00
  3.514890E-01  7.565564E-02  5.000000E-01  3.550372E-01  7.659281E-02  0.000000E+00  2.432446E-02  4.881689E-04  1.949816E-17 -6.704377E-01  0.000000E+00
  3.316730E-01  7.513507E-02  5.000000E-01  3.350212E-01  7.606698E-02  0.000000E+00  2.435621E-02  8.002626E-04  1.701603E-17 -6.387558E-01  0.000000E+00
  3.122580E-01  7.436939E-02  5.000000E-01  3.154102E-01  7.529356E-02  0.000000E+00  2.428098E-02  1.110402E-03  1.096695E-17 -6.063714E-01  0.000000E+00
  2.932850E-01  7.338078E-02  5.000000E-01  2.962457E-01  7.429498E-02  0.000000E+00  2.409453E-02  1.396522E-03  3.581488E-18 -5.754744E-01  0.000000E+00
  2.747930E-01  7.219898E-02  5.000000E-01  2.775670E-01  7.310125E-02  0.000000E+00  2.382528E-02  1.653699E-03 -3.070977E-18 -5.471748E-01  0.000000E+00
  2.568150E-01  7.085085E-02  5.000000E-01  2.594075E-01  7.173951E-02  0.000000E+00  2.351133E-02  1.886952E-03 -9.127706E-18 -5.217724E-01  0.000000E+00
  2.393810E-01  6.935911E-02  5.000000E-01  2.417975E-01  7.023271E-02  0.000000E+00  2.318690E-02  2.104187E-03 -1.336036E-17 -4.994881E-01  0.000000E+00
  2.225160E-01  6.774232E-02  5.000000E-01  2.247623E-01  6.859960E-02  0.000000E+00  2.287946E-02  2.311234E-03 -1.426069E-17 -4.815496E-01  0.000000E+00
  2.062420E-01  6.601482E-02  5.000000E-01  2.083240E-01  6.685466E-02  0.000000E+00  2.259194E-02  2.479780E-03 -1.170316E-17 -4.728038E-01  0.000000E+00
  1.905750E-01  6.423322E-02  5.000000E-01  1.924988E-01  6.505508E-02  0.000000E+00  2.234517E-02  2.553039E-03 -7.951235E-18 -4.805307E-01  0.000000E+00
  1.755290E-01  6.250100E-02  5.000000E-01  1.773010E-01  6.330537E-02  0.000000E+00  2.228613E-02  2.550702E-03 -3.167267E-18 -5.053623E-01  0.000000E+00
  1.611160E-01  6.086075E-02  5.000000E-01  1.627425E-01  6.164857E-02  0.000000E+00  2.259656E-02  2.554268E-03  3.278175E-18 -5.403036E-01  0.000000E+00
  1.473410E-01  5.931535E-02  5.000000E-01  1.488284E-01  6.008756E-02  0.000000E+00  2.331397E-02  2.612281E-03  1.041315E-17 -5.776868E-01  0.000000E+00
  1.342110E-01  5.784755E-02  5.000000E-01  1.355659E-01  5.860495E-02  0.000000E+00  2.432376E-02  2.739974E-03  2.148290E-17 -6.119925E-01  0.000000E+00
  1.217280E-01  5.643197E-02  5.000000E-01  1.229569E-01  5.717508E-02  0.000000E+00  2.544868E-02  2.937352E-03  3.327125E-17 -6.405516E-01  0.000000E+00
  1.098910E-01  5.504305E-02  5.000000E-01  1.110004E-01  5.577213E-02  0.000000E+00  2.655562E-02  3.209984E-03  4.350282E-17 -6.623630E-01  0.000000E+00
  9.869950E-02  5.365206E-02  5.000000E-01  9.969589E-02  5.436710E-02  0.000000E+00  2.759408E-02  3.573182E-03  5.389952E-17 -6.770634E-01  0.000000E+00
  8.814970E-02  5.223262E-02  5.000000E-01  8.903960E-02  5.293333E-02  0.000000E+00  2.857800E-02  4.052882E-03  6.286887E-17 -6.841925E-01  0.000000E+00
  8.814970E-02  5.223262E-02  5.000000E-01  8.903960E-02  5.293333E-02  0.000000E+00  2.857800E-02  4.052882E-03  6.286887E-17 -6.841925E-01  0.000000E+00
  7.823720E-02  5.075710E-02  5.000000E-01  7.902703E-02  5.144292E-02  0.000000E+00  2.954787E-02  4.691950E-03  7.109190E-17 -6.824625E-01  0.000000E+00
  6.895800E-02  4.919412E-02  5.000000E-01  6.965416E-02  4.986416E-02  0.000000E+00  3.051547E-02  5.532296E-03  7.735901E-17 -6.703711E-01  0.000000E+00
  6.030560E-02  4.751749E-02  5.000000E-01  6.091442E-02  4.817061E-02  0.000000E+00  3.146505E-02  6.628220E-03  8.294739E-17 -6.454539E-01  0.000000E+00
  5.227560E-02  4.569478E-02  5.000000E-01  5.280336E-02  4.632949E-02  0.000000E+00  3.233760E-02  8.040802E-03  8.808187E-17 -6.042009E-01  0.000000E+00
  4.486350E-02  4.369515E-02  5.000000E-01  4.531644E-02  4.430968E-02  0.000000E+00  3.299229E-02  9.791136E-03  9.456881E-17 -5.435862E-01  0.000000E+00
  3.806240E-02  4.149647E-02  5.000000E-01  3.844668E-02  4.208881E-02  0.000000E+00  3.324443E-02  1.187669E-02  1.043573E-16 -4.597355E-01  0.000000E+00
  3.186880E-02  3.907427E-02  5.000000E-01  3.219056E-02  3.964216E-02  0.000000E+00  3.285065E-02  1.420565E-02  1.129953E-16 -3.494585E-01  0.000000E+00
  2.627530E-02  3.641895E-02  5.000000E-01  2.654059E-02  3.696003E-02  0.000000E+00  3.155714E-02  1.655281E-02  1.142056E-16 -2.119803E-01  0.000000E+00
  2.127350E-02  3.353293E-02  5.000000E-01  2.148830E-02  3.404488E-02  0.000000E+00  2.923822E-02  1.864390E-02  8.911488E-17 -4.734978E-02  0.000000E+00
  1.685790E-02  3.042337E-02  5.000000E-01  1.702813E-02  3.090393E-02  0.000000E+00  2.594223E-02  2.012269E-02  8.904244E-18  1.388908E-01  0.000000E+00
  1.301460E-02  2.712537E-02  5.000000E-01  1.314603E-02  2.757264E-02  0.000000E+00  2.192678E-02  2.069912E-02 -1.168239E-16  3.371680E-01  0.000000E+00
  9.730790E-03  2.368426E-02  5.000000E-01  9.829072E-03  2.409679E-02  0.000000E+00  1.759132E-02  2.030314E-02 -2.323514E-16  5.384416E-01  0.000000E+00
  6.996180E-03  2.015493E-02  5.000000E-01  7.066857E-03  2.053183E-02  0.000000E+00  1.334189E-02  1.891437E-02 -2.856480E-16  7.277078E-01  0.000000E+00
  4.781010E-03  1.662876E-02  5.000000E-01  4.829325E-03  1.697007E-02  0.000000E+00  9.491947E-03  1.662625E-02 -2.676446E-16  8.913671E-01  0.000000E+00
  3.054950E-03  1.320116E-02  5.000000E-01  3.085841E-03  1.350786E-02  0.000000E+00  6.200428E-03  1.365353E-02 -2.192475E-16  1.024828E+00  0.000000E+00
  1.789910E-03  9.967164E-03  5.000000E-01  1.808031E-03  1.024122E-02  0.000000E+00  3.556587E-03  1.012569E-02 -1.838882E-16  1.123461E+00  0.000000E+00
  9.331870E-04  7.035729E-03  5.000000E-01  9.426596E-04  7.280195E-03  0.000000E+00  1.623151E-03  6.124376E-03 -1.710233E-16  1.183532E+00  0.000000E+00
  4.085430E-04  4.515247E-03  5.000000E-01  4.127195E-04  4.734269E-03  0.000000E+00  3.821447E-04  1.739094E-03 -1.881970E-16  1.207876E+00  0.000000E+00
  1.354760E-04  2.492911E-03  5.000000E-01  1.368960E-04  2.691519E-03  0.000000E+00 -2.396417E-04 -2.992645E-03 -2.787546E-16  1.204202E+00  0.000000E+00
  2.683130E-05  1.020815E-03  5.000000E-01  2.715456E-05  1.204563E-03  0.000000E+00 -3.444223E-04 -8.063909E-03 -2.367412E-16  1.180854E+00  0.000000E+00
  1.320070E-06  1.275743E-04  5.000000E-01  1.385807E-06  3.023050E-04  0.000000E+00 -2.079852E-04 -1.299242E-02  5.378133E-16  1.140482E+00  0.000000E+00
 -5.188750E-08 -1.717095E-04  5.000000E-01  0.000000E+00  0.000000E+00  0.000000E+00 -4.375568E-05 -1.611947E-02  1.813275E-15  1.105504E+00  0.000000E+00