 Title = "ADflow Slice Data"
Variables =  "CoordinateX"  "CoordinateY"  "CoordinateZ"  "XoC"  "YoC"  "ZoC" "VelocityX" "VelocityY" "VelocityZ" "CoefPressure" "Mach" 
Zone T= "Slice_0001 None Absolute Regular z = 0.50000000"
 Nodes =          192  Elements=          184  ZONETYPE=FELINESEG
 DATAPACKING=POINT
  5.560760E-01 -1.894247E-02  5.000000E-01  5.616895E-01 -1.896010E-02  0.000000E+00  1.501977E-02  1.096616E-03 -2.299856E-18 -1.682418E-01  0.000000E+00
  5.770550E-01 -1.737678E-02  5.000000E-01  5.828802E-01 -1.737861E-02  0.000000E+00  1.465784E-02  1.129756E-03 -1.808093E-18 -1.376003E-01  0.000000E+00
  5.977760E-01 -1.573337E-02  5.000000E-01  6.038104E-01 -1.571861E-02  0.000000E+00  1.430867E-02  1.178762E-03 -1.246090E-18 -1.159957E-01  0.000000E+00
  6.181820E-01 -1.398912E-02  5.000000E-01  6.244224E-01 -1.395675E-02  0.000000E+00  1.383347E-02  1.234452E-03  4.560426E-20 -9.758838E-02  0.000000E+00
  6.382180E-01 -1.212030E-02  5.000000E-01  6.446607E-01 -1.206907E-02  0.000000E+00  1.315369E-02  1.282112E-03  1.461618E-18 -7.551418E-02  0.000000E+00
  6.578350E-01 -1.011644E-02  5.000000E-01  6.644757E-01 -1.004497E-02  0.000000E+00  1.226593E-02  1.304971E-03  9.804540E-20 -4.537923E-02  0.000000E+00
  6.769910E-01 -7.987391E-03  5.000000E-01  6.838251E-01 -7.894433E-03  0.000000E+00  1.121713E-02  1.292474E-03 -8.280420E-19 -7.029607E-03  0.000000E+00
  6.956490E-01 -5.753247E-03  5.000000E-01  7.026714E-01 -5.637736E-03  0.000000E+00  1.007028E-02  1.241179E-03 -2.120704E-18  3.672354E-02  0.000000E+00
  7.137810E-01 -3.447940E-03  5.000000E-01  7.209864E-01 -3.309158E-03  0.000000E+00  8.883526E-03  1.152302E-03 -3.886956E-18  8.262474E-02  0.000000E+00
  7.313660E-01 -1.116579E-03  5.000000E-01  7.387490E-01 -9.542620E-04  0.000000E+00  7.700055E-03  1.033930E-03 -2.285649E-18  1.280569E-01  0.000000E+00
  7.483850E-01  1.200977E-03  5.000000E-01  7.559398E-01  1.386689E-03  0.000000E+00  6.555180E-03  9.002836E-04  2.761121E-19  1.713085E-01  0.000000E+00
  7.648220E-01  3.478914E-03  5.000000E-01  7.725427E-01  3.687621E-03  0.000000E+00  5.493875E-03  7.657493E-04  9.922929E-19  2.114807E-01  0.000000E+00
  7.806630E-01  5.699577E-03  5.000000E-01  7.885436E-01  5.930700E-03  0.000000E+00  4.585275E-03  6.359833E-04  7.651611E-19  2.489135E-01  0.000000E+00
  7.958970E-01  7.795078E-03  5.000000E-01  8.039314E-01  8.047355E-03  0.000000E+00  3.921433E-03  5.105359E-04  1.048425E-18  2.851627E-01  0.000000E+00
  8.105170E-01  9.582076E-03  5.000000E-01  8.186990E-01  9.852392E-03  0.000000E+00  3.564411E-03  3.970705E-04  2.043739E-18  3.175456E-01  0.000000E+00
  8.245160E-01  1.096906E-02  5.000000E-01  8.328393E-01  1.125338E-02  0.000000E+00  3.501208E-03  3.029793E-04  2.009259E-18  3.407173E-01  0.000000E+00
  8.378940E-01  1.195419E-02  5.000000E-01  8.463523E-01  1.224845E-02  0.000000E+00  3.670931E-03  2.234317E-04  2.049700E-18  3.541677E-01  0.000000E+00
  8.506490E-01  1.258000E-02  5.000000E-01  8.592361E-01  1.288058E-02  0.000000E+00  4.007786E-03  1.493086E-04  3.359995E-18  3.608540E-01  0.000000E+00
  8.627850E-01  1.290509E-02  5.000000E-01  8.714946E-01  1.320895E-02  0.000000E+00  4.457674E-03  7.341276E-05  2.512937E-18  3.633031E-01  0.000000E+00
  8.743060E-01  1.298919E-02  5.000000E-01  8.831319E-01  1.329390E-02  0.000000E+00  4.976960E-03 -8.154054E-06  8.160430E-19  3.626567E-01  0.000000E+00
  8.852170E-01  1.288402E-02  5.000000E-01  8.941530E-01  1.318766E-02  0.000000E+00  5.531337E-03 -9.678658E-05  1.271451E-18  3.595536E-01  0.000000E+00
  8.955250E-01  1.263060E-02  5.000000E-01  9.045651E-01  1.293169E-02  0.000000E+00  6.096717E-03 -1.924895E-04  2.246168E-18  3.545180E-01  0.000000E+00
  9.052400E-01  1.226194E-02  5.000000E-01  9.143782E-01  1.255931E-02  0.000000E+00  6.659778E-03 -2.952403E-04  1.980525E-18  3.479572E-01  0.000000E+00
  9.143710E-01  1.180370E-02  5.000000E-01  9.236013E-01  1.209644E-02  0.000000E+00  7.219304E-03 -4.078279E-04  1.421577E-18  3.403029E-01  0.000000E+00
  9.143710E-01  1.180370E-02  5.000000E-01  9.236013E-01  1.209644E-02  0.000000E+00  7.219304E-03 -4.078279E-04  1.421577E-18  3.403029E-01  0.000000E+00
  9.229270E-01  1.127078E-02  5.000000E-01  9.322437E-01  1.155814E-02  0.000000E+00  7.785607E-03 -5.357952E-04  2.456744E-19  3.317941E-01  0.000000E+00
  9.309180E-01  1.067245E-02  5.000000E-01  9.403154E-01  1.095377E-02  0.000000E+00  8.376060E-03 -6.844248E-04  2.655054E-19  3.221791E-01  0.000000E+00
  9.383550E-01  1.001737E-02  5.000000E-01  9.478274E-01  1.029208E-02  0.000000E+00  9.011384E-03 -8.586616E-04  2.171614E-19  3.109934E-01  0.000000E+00
  9.452490E-01  9.314300E-03  5.000000E-01  9.547910E-01  9.581913E-03  0.000000E+00  9.715179E-03 -1.065267E-03 -1.131712E-18  2.978533E-01  0.000000E+00
  9.516100E-01  8.571698E-03  5.000000E-01  9.612163E-01  8.831815E-03  0.000000E+00  1.051403E-02 -1.312881E-03 -6.733214E-19  2.823599E-01  0.000000E+00
  9.574470E-01  7.799087E-03  5.000000E-01  9.671122E-01  8.051404E-03  0.000000E+00  1.143569E-02 -1.610403E-03  3.813323E-20  2.639129E-01  0.000000E+00
  9.627730E-01  7.007719E-03  5.000000E-01  9.724919E-01  7.252048E-03  0.000000E+00  1.250842E-02 -1.967369E-03 -3.682539E-19  2.418262E-01  0.000000E+00
  9.675950E-01  6.211043E-03  5.000000E-01  9.773626E-01  6.447330E-03  0.000000E+00  1.376346E-02 -2.393362E-03  2.413024E-19  2.153802E-01  0.000000E+00
  9.719240E-01  5.424178E-03  5.000000E-01  9.817353E-01  5.652522E-03  0.000000E+00  1.524142E-02 -2.898682E-03  2.563788E-18  1.837474E-01  0.000000E+00
  9.757700E-01  4.663551E-03  5.000000E-01  9.856201E-01  4.884216E-03  0.000000E+00  1.700599E-02 -3.499767E-03  4.324440E-18  1.460974E-01  0.000000E+00
  9.791410E-01  3.945700E-03  5.000000E-01  9.890252E-01  4.159119E-03  0.000000E+00  1.915674E-02 -4.222159E-03 -2.456004E-18  1.015303E-01  0.000000E+00
  9.820450E-01  3.286542E-03  5.000000E-01  9.919585E-01  3.493306E-03  0.000000E+00  2.181202E-02 -5.097280E-03 -3.679326E-17  4.870295E-02  0.000000E+00
  9.844890E-01  2.700852E-03  5.000000E-01  9.944272E-01  2.901705E-03  0.000000E+00  2.503604E-02 -6.149456E-03 -1.103380E-16 -1.409026E-02  0.000000E+00
  9.864800E-01  2.201955E-03  5.000000E-01  9.964383E-01  2.397771E-03  0.000000E+00  2.875721E-02 -7.334081E-03 -1.634249E-16 -8.729426E-02  0.000000E+00
  9.880230E-01  1.801581E-03  5.000000E-01  9.979968E-01  1.993356E-03  0.000000E+00  3.246234E-02 -8.452830E-03  7.880607E-17 -1.778810E-01  0.000000E+00
  9.891220E-01  1.508981E-03  5.000000E-01  9.991069E-01  1.697802E-03  0.000000E+00  3.593176E-02 -9.736812E-03  1.173759E-15 -2.866831E-01  0.000000E+00
  9.897810E-01  1.330705E-03  5.000000E-01  9.997726E-01  1.517726E-03  0.000000E+00  5.276644E-02 -1.245355E-02  3.440515E-15 -3.054488E-01  0.000000E+00
  9.900000E-01  1.270858E-03  5.000000E-01  9.999938E-01  1.457275E-03  0.000000E+00  3.649710E-02 -2.267343E-03  1.106672E-14 -6.801603E-01  0.000000E+00
  9.900000E-01  1.680360E-03  5.000000E-01  9.999938E-01  1.870911E-03  0.000000E+00  2.126655E-03 -7.784995E-03  3.562747E-14 -9.795222E-01  0.000000E+00
  9.900000E-01  2.089862E-03  5.000000E-01  9.999938E-01  2.284546E-03  0.000000E+00 -5.415207E-04 -2.193044E-02  6.944504E-14 -8.242812E-01  0.000000E+00
  9.900000E-01  2.499364E-03  5.000000E-01  9.999938E-01  2.698182E-03  0.000000E+00 -1.401506E-04 -1.348408E-02  9.596336E-14 -7.966279E-01  0.000000E+00
  9.900000E-01  2.908851E-03  5.000000E-01  9.999938E-01  3.111803E-03  0.000000E+00  3.201930E-04 -8.312470E-03  1.144169E-13 -8.266190E-01  0.000000E+00
  9.900000E-01  3.318353E-03  5.000000E-01  9.999938E-01  3.525438E-03  0.000000E+00  4.471521E-03 -6.758246E-03  1.277252E-13 -7.913284E-01  0.000000E+00
  9.900000E-01  3.318353E-03  5.000000E-01  9.999938E-01  3.525438E-03  0.000000E+00  4.471521E-03 -6.758246E-03  1.277252E-13 -7.913284E-01  0.000000E+00
  9.897980E-01  3.422467E-03  5.000000E-01  9.997897E-01  3.630604E-03  0.000000E+00  5.440410E-03 -3.342491E-03  1.197137E-13 -7.430816E-01  0.000000E+00
  9.891900E-01  3.734807E-03  5.000000E-01  9.991756E-01  3.946097E-03  0.000000E+00  1.130383E-03 -5.172425E-04  8.494943E-14 -7.511405E-01  0.000000E+00
  9.881780E-01  4.254685E-03  5.000000E-01  9.981534E-01  4.471223E-03  0.000000E+00 -1.263344E-03  6.515897E-04  4.665720E-14 -7.582261E-01  0.000000E+00
  9.867570E-01  4.980800E-03  5.000000E-01  9.967180E-01  5.204668E-03  0.000000E+00 -2.627537E-03  1.327563E-03  1.897764E-14 -7.650759E-01  0.000000E+00
  9.849260E-01  5.909635E-03  5.000000E-01  9.948686E-01  6.142879E-03  0.000000E+00 -3.236592E-03  1.631718E-03  4.491018E-15 -7.748820E-01  0.000000E+00
  9.826810E-01  7.034705E-03  5.000000E-01  9.926009E-01  7.279306E-03  0.000000E+00 -3.243173E-03  1.614819E-03 -7.388016E-16 -7.840722E-01  0.000000E+00
  9.800160E-01  8.346266E-03  5.000000E-01  9.899090E-01  8.604107E-03  0.000000E+00 -2.935325E-03  1.430179E-03 -1.493194E-15 -7.896916E-01  0.000000E+00
  9.769240E-01  9.830243E-03  5.000000E-01  9.867858E-01  1.010306E-02  0.000000E+00 -2.610335E-03  1.232762E-03 -9.081338E-16 -7.918751E-01  0.000000E+00
  9.733970E-01  1.146549E-02  5.000000E-01  9.832232E-01  1.175482E-02  0.000000E+00 -2.455113E-03  1.110878E-03 -3.294941E-16 -7.926231E-01  0.000000E+00
  9.694240E-01  1.322552E-02  5.000000E-01  9.792101E-01  1.353261E-02  0.000000E+00 -2.528630E-03  1.088392E-03 -4.810911E-17 -7.938606E-01  0.000000E+00
  9.649940E-01  1.508360E-02  5.000000E-01  9.747354E-01  1.540945E-02  0.000000E+00 -2.827697E-03  1.158156E-03  2.666205E-17 -7.952643E-01  0.000000E+00
  9.600960E-01  1.701954E-02  5.000000E-01  9.697879E-01  1.736493E-02  0.000000E+00 -3.344091E-03  1.290643E-03  2.508348E-17 -7.957427E-01  0.000000E+00
  9.547180E-01  1.901317E-02  5.000000E-01  9.643556E-01  1.937869E-02  0.000000E+00 -3.937634E-03  1.401732E-03  1.221647E-17 -8.033248E-01  0.000000E+00
  9.488510E-01  2.104513E-02  5.000000E-01  9.584294E-01  2.143116E-02  0.000000E+00 -4.028602E-03  1.313353E-03  4.536369E-18 -8.415232E-01  0.000000E+00
  9.424820E-01  2.310016E-02  5.000000E-01  9.519961E-01  2.350694E-02  0.000000E+00 -2.458669E-03  7.518871E-04  4.538457E-18 -9.287994E-01  0.000000E+00
  9.356020E-01  2.516780E-02  5.000000E-01  9.450467E-01  2.559545E-02  0.000000E+00  2.038274E-03 -5.430278E-04  1.102566E-17 -1.046004E+00  0.000000E+00
  9.282010E-01  2.724188E-02  5.000000E-01  9.375709E-01  2.769046E-02  0.000000E+00  9.399502E-03 -2.460233E-03  2.266965E-17 -1.143393E+00  0.000000E+00
  9.202710E-01  2.931731E-02  5.000000E-01  9.295609E-01  2.978685E-02  0.000000E+00  1.715643E-02 -4.276996E-03  3.331729E-17 -1.187275E+00  0.000000E+00
  9.118010E-01  3.138191E-02  5.000000E-01  9.210054E-01  3.187229E-02  0.000000E+00  2.229114E-02 -5.225889E-03  3.719130E-17 -1.183643E+00  0.000000E+00
  9.027810E-01  3.341964E-02  5.000000E-01  9.118943E-01  3.393059E-02  0.000000E+00  2.407023E-02 -5.236004E-03  3.282214E-17 -1.156517E+00  0.000000E+00
  8.932000E-01  3.541479E-02  5.000000E-01  9.022166E-01  3.594588E-02  0.000000E+00  2.386737E-02 -4.767082E-03  2.514574E-17 -1.122492E+00  0.000000E+00
  8.830490E-01  3.734908E-02  5.000000E-01  8.919631E-01  3.789970E-02  0.000000E+00  2.317267E-02 -4.211816E-03  1.897822E-17 -1.087104E+00  0.000000E+00
  8.723190E-01  3.920160E-02  5.000000E-01  8.811248E-01  3.977092E-02  0.000000E+00  2.263723E-02 -3.705724E-03  1.416187E-17 -1.051034E+00  0.000000E+00
  8.723190E-01  3.920160E-02  5.000000E-01  8.811248E-01  3.977092E-02  0.000000E+00  2.263723E-02 -3.705724E-03  1.416187E-17 -1.051034E+00  0.000000E+00
  8.610010E-01  4.095169E-02  5.000000E-01  8.696926E-01  4.153867E-02  0.000000E+00  2.228936E-02 -3.247289E-03  1.132823E-17 -1.014057E+00  0.000000E+00
  8.490890E-01  4.258013E-02  5.000000E-01  8.576603E-01  4.318355E-02  0.000000E+00  2.196927E-02 -2.811014E-03  1.001554E-17 -9.762475E-01  0.000000E+00
  8.365770E-01  4.407112E-02  5.000000E-01  8.450220E-01  4.468959E-02  0.000000E+00  2.155802E-02 -2.392319E-03  9.248462E-18 -9.385571E-01  0.000000E+00
  8.234620E-01  4.541831E-02  5.000000E-01  8.317746E-01  4.605038E-02  0.000000E+00  2.102685E-02 -2.010319E-03  9.873043E-18 -9.032348E-01  0.000000E+00
  8.097400E-01  4.663109E-02  5.000000E-01  8.179141E-01  4.727540E-02  0.000000E+00  2.040984E-02 -1.699241E-03  1.041283E-17 -8.741231E-01  0.000000E+00
  7.954150E-01  4.774647E-02  5.000000E-01  8.034445E-01  4.840204E-02  0.000000E+00  1.977262E-02 -1.500418E-03  9.707355E-18 -8.561860E-01  0.000000E+00
  7.804870E-01  4.884263E-02  5.000000E-01  7.883658E-01  4.950927E-02  0.000000E+00  1.921865E-02 -1.441041E-03  8.160439E-18 -8.528621E-01  0.000000E+00
  7.649630E-01  5.002748E-02  5.000000E-01  7.726851E-01  5.070608E-02  0.000000E+00  1.890677E-02 -1.493050E-03  4.998304E-18 -8.617723E-01  0.000000E+00
  7.488530E-01  5.134429E-02  5.000000E-01  7.564125E-01  5.203618E-02  0.000000E+00  1.893306E-02 -1.605018E-03  5.927641E-19 -8.772599E-01  0.000000E+00
  7.321700E-01  5.280987E-02  5.000000E-01  7.395611E-01  5.351655E-02  0.000000E+00  1.924068E-02 -1.751997E-03 -3.097895E-18 -8.953830E-01  0.000000E+00
  7.149290E-01  5.443395E-02  5.000000E-01  7.221460E-01  5.515703E-02  0.000000E+00  1.970883E-02 -1.915615E-03 -7.456455E-18 -9.133572E-01  0.000000E+00
  6.971500E-01  5.621360E-02  5.000000E-01  7.041876E-01  5.695465E-02  0.000000E+00  2.023755E-02 -2.071093E-03 -1.347499E-17 -9.286130E-01  0.000000E+00
  6.788570E-01  5.812636E-02  5.000000E-01  6.857099E-01  5.888671E-02  0.000000E+00  2.077503E-02 -2.187318E-03 -1.674702E-17 -9.385631E-01  0.000000E+00
  6.600760E-01  6.011960E-02  5.000000E-01  6.667393E-01  6.090007E-02  0.000000E+00  2.129072E-02 -2.236857E-03 -1.802405E-17 -9.414101E-01  0.000000E+00
  6.408370E-01  6.212226E-02  5.000000E-01  6.473061E-01  6.292296E-02  0.000000E+00  2.173663E-02 -2.217082E-03 -1.905015E-17 -9.376013E-01  0.000000E+00
  6.211780E-01  6.408637E-02  5.000000E-01  6.274486E-01  6.490689E-02  0.000000E+00  2.208156E-02 -2.142168E-03 -1.916566E-17 -9.288032E-01  0.000000E+00
  6.011430E-01  6.597238E-02  5.000000E-01  6.072114E-01  6.681194E-02  0.000000E+00  2.234209E-02 -2.023318E-03 -1.754658E-17 -9.162137E-01  0.000000E+00
  5.807790E-01  6.774414E-02  5.000000E-01  5.866418E-01  6.860158E-02  0.000000E+00  2.254758E-02 -1.871708E-03 -1.592950E-17 -9.007908E-01  0.000000E+00
  5.601410E-01  6.937545E-02  5.000000E-01  5.657955E-01  7.024936E-02  0.000000E+00  2.272365E-02 -1.696170E-03 -1.388493E-17 -8.832378E-01  0.000000E+00
  5.392850E-01  7.084142E-02  5.000000E-01  5.447290E-01  7.173013E-02  0.000000E+00  2.288446E-02 -1.503591E-03 -1.226546E-17 -8.641960E-01  0.000000E+00
  5.182680E-01  7.212618E-02  5.000000E-01  5.234998E-01  7.302786E-02  0.000000E+00  2.302928E-02 -1.304994E-03 -1.171859E-17 -8.446529E-01  0.000000E+00
  4.971500E-01  7.322850E-02  5.000000E-01  5.021686E-01  7.414131E-02  0.000000E+00  2.316524E-02 -1.107601E-03 -9.314010E-18 -8.252985E-01  0.000000E+00
  4.759900E-01  7.414774E-02  5.000000E-01  4.807950E-01  7.506983E-02  0.000000E+00  2.330877E-02 -9.115320E-04 -7.925207E-18 -8.062551E-01  0.000000E+00
  2.733630E-06 -4.856416E-04  5.000000E-01  2.813636E-06 -3.169559E-04  0.000000E+00  4.684124E-04 -1.839817E-02 -4.016157E-19  1.096992E+00  0.000000E+00
  4.455870E-05 -1.426638E-03  5.000000E-01  4.506092E-05 -1.267451E-03  0.000000E+00  2.257798E-03 -2.189787E-02  2.629464E-17  1.067680E+00  0.000000E+00
  2.731490E-04 -2.959139E-03  5.000000E-01  2.759588E-04 -2.815423E-03  0.000000E+00  6.590452E-03 -2.485235E-02  3.979751E-17  9.469137E-01  0.000000E+00
  9.950900E-04 -4.913989E-03  5.000000E-01  1.005188E-03 -4.790006E-03  0.000000E+00  1.277299E-02 -2.521338E-02  4.133802E-17  7.371603E-01  0.000000E+00
  2.349870E-03 -6.989035E-03  5.000000E-01  2.373644E-03 -6.885999E-03  0.000000E+00  1.846300E-02 -2.401236E-02  4.045268E-17  5.280455E-01  0.000000E+00
  4.254460E-03 -9.117468E-03  5.000000E-01  4.297460E-03 -9.035918E-03  0.000000E+00  2.307855E-02 -2.269873E-02  2.854260E-17  3.566879E-01  0.000000E+00
  6.687140E-03 -1.124067E-02  5.000000E-01  6.754697E-03 -1.118055E-02  0.000000E+00  2.707929E-02 -2.121412E-02  7.858603E-18  1.940019E-01  0.000000E+00
  9.634000E-03 -1.332110E-02  5.000000E-01  9.731305E-03 -1.328198E-02  0.000000E+00  3.034379E-02 -1.921492E-02 -4.548843E-18  2.869128E-02  0.000000E+00
  1.310530E-02 -1.529114E-02  5.000000E-01  1.323765E-02 -1.527191E-02  0.000000E+00  3.257612E-02 -1.656318E-02 -5.719310E-19 -1.352104E-01  0.000000E+00
  1.710810E-02 -1.709908E-02  5.000000E-01  1.728085E-02 -1.709810E-02  0.000000E+00  3.384261E-02 -1.379032E-02  2.284733E-17 -2.753026E-01  0.000000E+00
  2.163760E-02 -1.874552E-02  5.000000E-01  2.185608E-02 -1.876116E-02  0.000000E+00  3.453319E-02 -1.137388E-02  5.497484E-17 -3.822213E-01  0.000000E+00
  2.669190E-02 -2.024013E-02  5.000000E-01  2.696140E-02 -2.027086E-02  0.000000E+00  3.479286E-02 -9.240954E-03  7.686806E-17 -4.684449E-01  0.000000E+00
  3.228310E-02 -2.155878E-02  5.000000E-01  3.260904E-02 -2.160282E-02  0.000000E+00  3.457999E-02 -7.268099E-03  8.735467E-17 -5.436599E-01  0.000000E+00
  3.842170E-02 -2.268939E-02  5.000000E-01  3.880961E-02 -2.274484E-02  0.000000E+00  3.397761E-02 -5.531747E-03  9.016878E-17 -6.068218E-01  0.000000E+00
  4.511710E-02 -2.363274E-02  5.000000E-01  4.557260E-02 -2.369771E-02  0.000000E+00  3.311400E-02 -4.077894E-03  8.427788E-17 -6.566669E-01  0.000000E+00
  5.237940E-02 -2.439414E-02  5.000000E-01  5.290821E-02 -2.446681E-02  0.000000E+00  3.211141E-02 -2.911353E-03  7.474038E-17 -6.927882E-01  0.000000E+00
  6.021800E-02 -2.498931E-02  5.000000E-01  6.082593E-02 -2.506798E-02  0.000000E+00  3.108827E-02 -2.024278E-03  6.517934E-17 -7.151354E-01  0.000000E+00
  6.864140E-02 -2.544350E-02  5.000000E-01  6.933437E-02 -2.552676E-02  0.000000E+00  3.009532E-02 -1.372335E-03  5.419547E-17 -7.253213E-01  0.000000E+00
  7.765990E-02 -2.577775E-02  5.000000E-01  7.844390E-02 -2.586438E-02  0.000000E+00  2.911789E-02 -9.045714E-04  4.298921E-17 -7.251535E-01  0.000000E+00
  8.728340E-02 -2.601721E-02  5.000000E-01  8.816455E-02 -2.610625E-02  0.000000E+00  2.810574E-02 -5.940324E-04  3.397335E-17 -7.150014E-01  0.000000E+00
  9.752070E-02 -2.619408E-02  5.000000E-01  9.850519E-02 -2.628491E-02  0.000000E+00  2.693458E-02 -4.144223E-04  2.772241E-17 -6.948134E-01  0.000000E+00
  1.083810E-01 -2.634032E-02  5.000000E-01  1.094751E-01 -2.643263E-02  0.000000E+00  2.544621E-02 -3.389486E-04  2.238833E-17 -6.639460E-01  0.000000E+00
  1.198710E-01 -2.649171E-02  5.000000E-01  1.210811E-01 -2.658554E-02  0.000000E+00  2.358877E-02 -3.460418E-04  1.830202E-17 -6.206098E-01  0.000000E+00
  1.319970E-01 -2.668812E-02  5.000000E-01  1.333295E-01 -2.678394E-02  0.000000E+00  2.154719E-02 -4.098857E-04  1.355798E-17 -5.630755E-01  0.000000E+00
  1.319970E-01 -2.668812E-02  5.000000E-01  1.333295E-01 -2.678394E-02  0.000000E+00  2.154719E-02 -4.098857E-04  1.355798E-17 -5.630755E-01  0.000000E+00
  1.447640E-01 -2.696699E-02  5.000000E-01  1.462254E-01 -2.706563E-02  0.000000E+00  1.975904E-02 -5.084816E-04  7.688548E-18 -4.919254E-01  0.000000E+00
  1.581750E-01 -2.736270E-02  5.000000E-01  1.597718E-01 -2.746533E-02  0.000000E+00  1.872071E-02 -6.323719E-04  5.485652E-18 -4.135725E-01  0.000000E+00
  1.722290E-01 -2.789570E-02  5.000000E-01  1.739676E-01 -2.800371E-02  0.000000E+00  1.868278E-02 -7.709158E-04  4.393386E-18 -3.423702E-01  0.000000E+00
  1.869240E-01 -2.855286E-02  5.000000E-01  1.888110E-01 -2.866750E-02  0.000000E+00  1.949501E-02 -8.796881E-04  2.384940E-18 -2.967398E-01  0.000000E+00
  2.022540E-01 -2.926178E-02  5.000000E-01  2.042957E-01 -2.938358E-02  0.000000E+00  2.069543E-02 -8.557798E-04  1.510061E-18 -2.903300E-01  0.000000E+00
  2.182110E-01 -2.985972E-02  5.000000E-01  2.204138E-01 -2.998756E-02  0.000000E+00  2.179522E-02 -6.412036E-04  9.326426E-19 -3.196540E-01  0.000000E+00
  2.347810E-01 -3.021949E-02  5.000000E-01  2.371511E-01 -3.035095E-02  0.000000E+00  2.250060E-02 -3.193894E-04  7.321963E-19 -3.634746E-01  0.000000E+00
  2.519470E-01 -3.033091E-02  5.000000E-01  2.544904E-01 -3.046350E-02  0.000000E+00  2.264572E-02  5.321523E-06  1.024876E-18 -4.011792E-01  0.000000E+00
  2.696890E-01 -3.020257E-02  5.000000E-01  2.724115E-01 -3.033387E-02  0.000000E+00  2.217859E-02  2.799525E-04  1.236837E-18 -4.218961E-01  0.000000E+00
  2.879810E-01 -2.986563E-02  5.000000E-01  2.908881E-01 -2.999353E-02  0.000000E+00  2.126885E-02  4.649988E-04  9.524869E-19 -4.209673E-01  0.000000E+00
  3.067920E-01 -2.938141E-02  5.000000E-01  3.098890E-01 -2.950441E-02  0.000000E+00  2.026859E-02  5.413017E-04  8.743887E-19 -3.993254E-01  0.000000E+00
  3.260870E-01 -2.884119E-02  5.000000E-01  3.293788E-01 -2.895875E-02  0.000000E+00  1.953706E-02  5.200049E-04  1.010770E-18 -3.641300E-01  0.000000E+00
  3.458260E-01 -2.834437E-02  5.000000E-01  3.493171E-01 -2.845691E-02  0.000000E+00  1.922624E-02  4.624179E-04  8.891676E-19 -3.292079E-01  0.000000E+00
  3.659650E-01 -2.789043E-02  5.000000E-01  3.696594E-01 -2.799839E-02  0.000000E+00  1.926313E-02  4.376098E-04  1.123207E-18 -3.074832E-01  0.000000E+00
  3.864540E-01 -2.742793E-02  5.000000E-01  3.903552E-01 -2.753122E-02  0.000000E+00  1.948042E-02  4.682115E-04  2.479019E-18 -3.022733E-01  0.000000E+00
  4.072410E-01 -2.690125E-02  5.000000E-01  4.113520E-01 -2.699922E-02  0.000000E+00  1.966745E-02  5.526757E-04  3.040168E-18 -3.090268E-01  0.000000E+00
  4.282690E-01 -2.625399E-02  5.000000E-01  4.325923E-01 -2.634543E-02  0.000000E+00  1.960060E-02  6.825590E-04 -4.390884E-19 -3.198396E-01  0.000000E+00
  4.494800E-01 -2.542806E-02  5.000000E-01  4.540174E-01 -2.551116E-02  0.000000E+00  1.913979E-02  8.286769E-04 -1.224029E-18 -3.252811E-01  0.000000E+00
  4.708130E-01 -2.440337E-02  5.000000E-01  4.755658E-01 -2.447612E-02  0.000000E+00  1.831685E-02  9.461761E-04 -1.865838E-19 -3.166620E-01  0.000000E+00
  4.922030E-01 -2.321039E-02  5.000000E-01  4.971717E-01 -2.327111E-02  0.000000E+00  1.730554E-02  1.016940E-03 -1.008952E-18 -2.909540E-01  0.000000E+00
  5.135860E-01 -2.188226E-02  5.000000E-01  5.187705E-01 -2.192956E-02  0.000000E+00  1.632493E-02  1.054493E-03  2.268169E-19 -2.521872E-01  0.000000E+00
  5.348990E-01 -2.044914E-02  5.000000E-01  5.402987E-01 -2.048198E-02  0.000000E+00  1.554673E-02  1.076146E-03 -4.757467E-19 -2.083807E-01  0.000000E+00
  5.560760E-01 -1.894247E-02  5.000000E-01  5.616895E-01 -1.896010E-02  0.000000E+00  1.501977E-02  1.096616E-03 -2.299856E-18 -1.682418E-01  0.000000E+00
  4.759900E-01  7.414774E-02  5.000000E-01  4.807950E-01  7.506983E-02  0.000000E+00  2.330877E-02 -9.115320E-04 -7.925207E-18 -8.062551E-01  0.000000E+00
  4.548480E-01  7.488302E-02  5.000000E-01  4.594396E-01  7.581253E-02  0.000000E+00  2.346760E-02 -7.164551E-04 -7.735100E-18 -7.874831E-01  0.000000E+00
  4.337860E-01  7.543642E-02  5.000000E-01  4.381650E-01  7.637151E-02  0.000000E+00  2.364347E-02 -5.190360E-04 -7.722958E-18 -7.685597E-01  0.000000E+00
  4.128620E-01  7.580594E-02  5.000000E-01  4.170298E-01  7.674476E-02  0.000000E+00  2.383800E-02 -3.075423E-04 -7.706351E-18 -7.483362E-01  0.000000E+00
  3.921340E-01  7.597602E-02  5.000000E-01  3.960925E-01  7.691656E-02  0.000000E+00  2.403725E-02 -7.087223E-05 -7.505822E-18 -7.256235E-01  0.000000E+00
  3.716590E-01  7.593000E-02  5.000000E-01  3.754108E-01  7.687008E-02  0.000000E+00  2.420994E-02  1.944119E-04 -6.595593E-18 -6.997864E-01  0.000000E+00
  3.514890E-01  7.565269E-02  5.000000E-01  3.550372E-01  7.658997E-02  0.000000E+00  2.432509E-02  4.871031E-04 -5.539609E-18 -6.706924E-01  0.000000E+00
  3.316730E-01  7.513289E-02  5.000000E-01  3.350212E-01  7.606492E-02  0.000000E+00  2.435711E-02  7.995898E-04 -4.890375E-18 -6.389744E-01  0.000000E+00
  3.122580E-01  7.436757E-02  5.000000E-01  3.154102E-01  7.529188E-02  0.000000E+00  2.428143E-02  1.110131E-03 -4.416176E-18 -6.065471E-01  0.000000E+00
  2.932850E-01  7.337904E-02  5.000000E-01  2.962457E-01  7.429337E-02  0.000000E+00  2.409389E-02  1.396459E-03 -3.501359E-18 -5.756210E-01  0.000000E+00
  2.747930E-01  7.219720E-02  5.000000E-01  2.775670E-01  7.309959E-02  0.000000E+00  2.382334E-02  1.653625E-03 -2.336795E-18 -5.473156E-01  0.000000E+00
  2.568150E-01  7.084901E-02  5.000000E-01  2.594075E-01  7.173780E-02  0.000000E+00  2.350828E-02  1.886711E-03 -2.843341E-18 -5.219322E-01  0.000000E+00
  2.393810E-01  6.935731E-02  5.000000E-01  2.417975E-01  7.023104E-02  0.000000E+00  2.318319E-02  2.103700E-03 -2.831463E-18 -4.996884E-01  0.000000E+00
  2.225160E-01  6.774071E-02  5.000000E-01  2.247623E-01  6.859812E-02  0.000000E+00  2.287559E-02  2.310476E-03 -1.931170E-18 -4.818069E-01  0.000000E+00
  2.062420E-01  6.601355E-02  5.000000E-01  2.083240E-01  6.685353E-02  0.000000E+00  2.258832E-02  2.478738E-03 -1.362539E-18 -4.731297E-01  0.000000E+00
  1.905750E-01  6.423251E-02  5.000000E-01  1.924988E-01  6.505450E-02  0.000000E+00  2.234207E-02  2.551686E-03 -1.159041E-18 -4.809318E-01  0.000000E+00
  1.755290E-01  6.250110E-02  5.000000E-01  1.773010E-01  6.330561E-02  0.000000E+00  2.228377E-02  2.549011E-03 -2.069331E-18 -5.058371E-01  0.000000E+00
  1.611160E-01  6.086191E-02  5.000000E-01  1.627425E-01  6.164988E-02  0.000000E+00  2.259507E-02  2.552222E-03 -2.665062E-18 -5.408425E-01  0.000000E+00
  1.473410E-01  5.931779E-02  5.000000E-01  1.488284E-01  6.009017E-02  0.000000E+00  2.331334E-02  2.609847E-03 -8.973187E-19 -5.782781E-01  0.000000E+00
  1.342110E-01  5.785143E-02  5.000000E-01  1.355659E-01  5.860901E-02  0.000000E+00  2.432380E-02  2.737107E-03  1.366852E-18 -6.126268E-01  0.000000E+00
  1.217280E-01  5.643742E-02  5.000000E-01  1.229569E-01  5.718073E-02  0.000000E+00  2.544912E-02  2.934018E-03  1.436898E-18 -6.412230E-01  0.000000E+00
  1.098910E-01  5.505015E-02  5.000000E-01  1.110004E-01  5.577945E-02  0.000000E+00  2.655627E-02  3.206186E-03  2.984581E-18 -6.630679E-01  0.000000E+00
  9.869950E-02  5.366086E-02  5.000000E-01  9.969589E-02  5.437614E-02  0.000000E+00  2.759490E-02  3.568967E-03  6.087531E-18 -6.777988E-01  0.000000E+00
  8.814970E-02  5.224312E-02  5.000000E-01  8.903960E-02  5.294409E-02  0.000000E+00  2.857910E-02  4.048341E-03  1.002205E-17 -6.849545E-01  0.000000E+00
  8.814970E-02  5.224312E-02  5.000000E-01  8.903960E-02  5.294409E-02  0.000000E+00  2.857910E-02  4.048341E-03  1.002205E-17 -6.849545E-01  0.000000E+00
  7.823720E-02  5.076926E-02  5.000000E-01  7.902703E-02  5.145535E-02  0.000000E+00  2.954947E-02  4.687228E-03  1.504732E-17 -6.832461E-01  0.000000E+00
  6.895800E-02  4.920786E-02  5.000000E-01  6.965416E-02  4.987818E-02  0.000000E+00  3.051783E-02  5.527611E-03  1.884159E-17 -6.711696E-01  0.000000E+00
  6.030560E-02  4.753266E-02  5.000000E-01  6.091442E-02  4.818608E-02  0.000000E+00  3.146845E-02  6.623888E-03  2.040618E-17 -6.462578E-01  0.000000E+00
  5.227560E-02  4.571120E-02  5.000000E-01  5.280336E-02  4.634623E-02  0.000000E+00  3.234228E-02  8.037265E-03  1.849504E-17 -6.049971E-01  0.000000E+00
  4.486350E-02  4.371258E-02  5.000000E-01  4.531644E-02  4.432744E-02  0.000000E+00  3.299834E-02  9.788957E-03  1.500313E-17 -5.443571E-01  0.000000E+00
  3.806240E-02  4.151463E-02  5.000000E-01  3.844668E-02  4.210729E-02  0.000000E+00  3.325167E-02  1.187649E-02  7.783876E-18 -4.604581E-01  0.000000E+00
  3.186880E-02  3.909281E-02  5.000000E-01  3.219056E-02  3.966103E-02  0.000000E+00  3.285846E-02  1.420795E-02 -1.628450E-18 -3.501050E-01  0.000000E+00
  2.627530E-02  3.643751E-02  5.000000E-01  2.654059E-02  3.697892E-02  0.000000E+00  3.156446E-02  1.655773E-02 -5.573550E-18 -2.125213E-01  0.000000E+00
  2.127350E-02  3.355112E-02  5.000000E-01  2.148830E-02  3.406339E-02  0.000000E+00  2.924380E-02  1.865099E-02 -6.855593E-18 -4.776029E-02  0.000000E+00
  1.685790E-02  3.044078E-02  5.000000E-01  1.702813E-02  3.092166E-02  0.000000E+00  2.594503E-02  2.013081E-02 -1.015809E-17  1.386225E-01  0.000000E+00
  1.301460E-02  2.714163E-02  5.000000E-01  1.314603E-02  2.758920E-02  0.000000E+00  2.192632E-02  2.070666E-02 -1.708748E-17  3.370336E-01  0.000000E+00
  9.730790E-03  2.369902E-02  5.000000E-01  9.829072E-03  2.411184E-02  0.000000E+00  1.758796E-02  2.030861E-02 -2.548276E-17  5.384136E-01  0.000000E+00
  6.996180E-03  2.016789E-02  5.000000E-01  7.066857E-03  2.054507E-02  0.000000E+00  1.333670E-02  1.891689E-02 -2.732038E-17  7.277458E-01  0.000000E+00
  4.781010E-03  1.663974E-02  5.000000E-01  4.829325E-03  1.698130E-02  0.000000E+00  9.486259E-03  1.662580E-02 -2.157899E-17  8.914304E-01  0.000000E+00
  3.054950E-03  1.321005E-02  5.000000E-01  3.085841E-03  1.351699E-02  0.000000E+00  6.195427E-03  1.365085E-02 -1.880139E-17  1.024885E+00  0.000000E+00
  1.789910E-03  9.973977E-03  5.000000E-01  1.808031E-03  1.024825E-02  0.000000E+00  3.553041E-03  1.012208E-02 -1.957017E-17  1.123496E+00  0.000000E+00
  9.331870E-04  7.040583E-03  5.000000E-01  9.426596E-04  7.285244E-03  0.000000E+00  1.621277E-03  6.121373E-03 -1.796497E-17  1.183545E+00  0.000000E+00
  4.085430E-04  4.518376E-03  5.000000E-01  4.127195E-04  4.737575E-03  0.000000E+00  3.816766E-04  1.738196E-03 -1.967792E-17  1.207877E+00  0.000000E+00
  1.354760E-04  2.494635E-03  5.000000E-01  1.368960E-04  2.693406E-03  0.000000E+00 -2.392741E-04 -2.990105E-03 -2.598236E-17  1.204205E+00  0.000000E+00
  2.683130E-05  1.021509E-03  5.000000E-01  2.715456E-05  1.205409E-03  0.000000E+00 -3.438813E-04 -8.056867E-03 -3.535308E-17  1.180875E+00  0.000000E+00
  1.320070E-06  1.276410E-04  5.000000E-01  1.385807E-06  3.025175E-04  0.000000E+00 -2.076629E-04 -1.298082E-02 -3.996056E-17  1.140533E+00  0.000000E+00
 -5.188750E-08 -1.718533E-04  5.000000E-01  0.000000E+00  0.000000E+00  0.000000E+00 -4.372400E-05 -1.610572E-02 -2.664719E-17  1.105579E+00  0.000000E+00