 Title = "ADflow Slice Data"
Variables =  "CoordinateX"  "CoordinateY"  "CoordinateZ"  "XoC"  "YoC"  "ZoC" "VelocityX" "VelocityY" "VelocityZ" "CoefPressure" "Mach" 
Zone T= "Slice_0001 None Absolute Regular z = 0.50000000"
 Nodes =          192  Elements=          184  ZONETYPE=FELINESEG
 DATAPACKING=POINT
  5.560760E-01 -1.894245E-02  5.000000E-01  5.616895E-01 -1.896014E-02  0.000000E+00  1.502316E-02  1.096868E-03  1.512781E-18 -1.688484E-01  0.000000E+00
  5.770550E-01 -1.737679E-02  5.000000E-01  5.828802E-01 -1.737869E-02  0.000000E+00  1.465597E-02  1.129621E-03  8.568466E-19 -1.377773E-01  0.000000E+00
  5.977760E-01 -1.573348E-02  5.000000E-01  6.038104E-01 -1.571879E-02  0.000000E+00  1.430514E-02  1.178399E-03 -1.281202E-19 -1.159238E-01  0.000000E+00
  6.181820E-01 -1.398946E-02  5.000000E-01  6.244224E-01 -1.395716E-02  0.000000E+00  1.383064E-02  1.233988E-03 -5.999110E-19 -9.747419E-02  0.000000E+00
  6.382180E-01 -1.212106E-02  5.000000E-01  6.446607E-01 -1.206989E-02  0.000000E+00  1.315279E-02  1.281654E-03  7.246251E-20 -7.547869E-02  0.000000E+00
  6.578350E-01 -1.011785E-02  5.000000E-01  6.644757E-01 -1.004647E-02  0.000000E+00  1.226734E-02  1.304609E-03  5.616435E-19 -4.544374E-02  0.000000E+00
  6.769910E-01 -7.989730E-03  5.000000E-01  6.838251E-01 -7.896864E-03  0.000000E+00  1.122061E-02  1.292306E-03  1.015342E-18 -7.166198E-03  0.000000E+00
  6.956490E-01 -5.756581E-03  5.000000E-01  7.026714E-01 -5.641172E-03  0.000000E+00  1.007513E-02  1.241283E-03 -4.408925E-19  3.654531E-02  0.000000E+00
  7.137810E-01 -3.452092E-03  5.000000E-01  7.209864E-01 -3.313419E-03  0.000000E+00  8.888768E-03  1.152668E-03 -2.032683E-18  8.242595E-02  0.000000E+00
  7.313660E-01 -1.121170E-03  5.000000E-01  7.387490E-01 -9.589682E-04  0.000000E+00  7.704708E-03  1.034466E-03  1.088638E-18  1.278538E-01  0.000000E+00
  7.483850E-01  1.196463E-03  5.000000E-01  7.559398E-01  1.382060E-03  0.000000E+00  6.558418E-03  9.008666E-04  3.020833E-18  1.711176E-01  0.000000E+00
  7.648220E-01  3.475077E-03  5.000000E-01  7.725427E-01  3.683677E-03  0.000000E+00  5.495160E-03  7.662586E-04  7.445556E-19  2.113183E-01  0.000000E+00
  7.806630E-01  5.697056E-03  5.000000E-01  7.885436E-01  5.928085E-03  0.000000E+00  4.584416E-03  6.363274E-04  4.928730E-19  2.487927E-01  0.000000E+00
  7.958970E-01  7.794425E-03  5.000000E-01  8.039314E-01  8.046628E-03  0.000000E+00  3.918562E-03  5.106874E-04  1.343069E-18  2.850925E-01  0.000000E+00
  8.105170E-01  9.583512E-03  5.000000E-01  8.186990E-01  9.853774E-03  0.000000E+00  3.559842E-03  3.970898E-04  1.870467E-18  3.175258E-01  0.000000E+00
  8.245160E-01  1.097254E-02  5.000000E-01  8.328393E-01  1.125682E-02  0.000000E+00  3.495257E-03  3.029689E-04  9.640907E-19  3.407390E-01  0.000000E+00
  8.378940E-01  1.195950E-02  5.000000E-01  8.463523E-01  1.225375E-02  0.000000E+00  3.663836E-03  2.234760E-04 -4.323644E-19  3.542229E-01  0.000000E+00
  8.506490E-01  1.258687E-02  5.000000E-01  8.592361E-01  1.288745E-02  0.000000E+00  3.999719E-03  1.494538E-04  8.653050E-19  3.609402E-01  0.000000E+00
  8.627850E-01  1.291321E-02  5.000000E-01  8.714946E-01  1.321708E-02  0.000000E+00  4.448794E-03  7.366928E-05 -3.700856E-19  3.634201E-01  0.000000E+00
  8.743060E-01  1.299823E-02  5.000000E-01  8.831319E-01  1.330296E-02  0.000000E+00  4.967434E-03 -7.801587E-06 -1.729097E-18  3.628033E-01  0.000000E+00
  8.852170E-01  1.289368E-02  5.000000E-01  8.941530E-01  1.319736E-02  0.000000E+00  5.521348E-03 -9.636837E-05 -8.262245E-19  3.597268E-01  0.000000E+00
  8.955250E-01  1.264061E-02  5.000000E-01  9.045651E-01  1.294173E-02  0.000000E+00  6.086457E-03 -1.920435E-04 -1.179333E-20  3.547141E-01  0.000000E+00
  9.052400E-01  1.227203E-02  5.000000E-01  9.143782E-01  1.256943E-02  0.000000E+00  6.649440E-03 -2.948077E-04  3.447641E-19  3.481718E-01  0.000000E+00
  9.143710E-01  1.181365E-02  5.000000E-01  9.236013E-01  1.210643E-02  0.000000E+00  7.209068E-03 -4.074470E-04 -3.062790E-19  3.405313E-01  0.000000E+00
  9.143710E-01  1.181365E-02  5.000000E-01  9.236013E-01  1.210643E-02  0.000000E+00  7.209068E-03 -4.074470E-04 -3.062790E-19  3.405313E-01  0.000000E+00
  9.229270E-01  1.128041E-02  5.000000E-01  9.322437E-01  1.156780E-02  0.000000E+00  7.775626E-03 -5.354988E-04 -1.161548E-19  3.320318E-01  0.000000E+00
  9.309180E-01  1.068160E-02  5.000000E-01  9.403154E-01  1.096294E-02  0.000000E+00  8.366458E-03 -6.842437E-04  4.894838E-19  3.224218E-01  0.000000E+00
  9.383550E-01  1.002590E-02  5.000000E-01  9.478274E-01  1.030063E-02  0.000000E+00  9.002251E-03 -8.586269E-04  7.403676E-19  3.112376E-01  0.000000E+00
  9.452490E-01  9.322133E-03  5.000000E-01  9.547910E-01  9.589757E-03  0.000000E+00  9.706577E-03 -1.065411E-03  1.105337E-18  2.980959E-01  0.000000E+00
  9.516100E-01  8.578765E-03  5.000000E-01  9.612163E-01  8.838885E-03  0.000000E+00  1.050599E-02 -1.313240E-03 -1.584197E-19  2.825986E-01  0.000000E+00
  9.574470E-01  7.805352E-03  5.000000E-01  9.671122E-01  8.057664E-03  0.000000E+00  1.142823E-02 -1.611016E-03 -1.135053E-18  2.641457E-01  0.000000E+00
  9.627730E-01  7.013172E-03  5.000000E-01  9.724919E-01  7.257488E-03  0.000000E+00  1.250154E-02 -1.968284E-03 -9.309082E-19  2.420516E-01  0.000000E+00
  9.675950E-01  6.215698E-03  5.000000E-01  9.773626E-01  6.451963E-03  0.000000E+00  1.375715E-02 -2.394633E-03 -1.133630E-18  2.155970E-01  0.000000E+00
  9.719240E-01  5.428065E-03  5.000000E-01  9.817353E-01  5.656379E-03  0.000000E+00  1.523566E-02 -2.900374E-03 -6.496477E-19  1.839546E-01  0.000000E+00
  9.757700E-01  4.666718E-03  5.000000E-01  9.856201E-01  4.887347E-03  0.000000E+00  1.700080E-02 -3.501960E-03  2.963354E-18  1.462938E-01  0.000000E+00
  9.791410E-01  3.948207E-03  5.000000E-01  9.890252E-01  4.161583E-03  0.000000E+00  1.915212E-02 -4.224961E-03  2.285333E-18  1.017146E-01  0.000000E+00
  9.820450E-01  3.288461E-03  5.000000E-01  9.919585E-01  3.495177E-03  0.000000E+00  2.180807E-02 -5.100841E-03 -2.632131E-17  4.887337E-02  0.000000E+00
  9.844890E-01  2.702263E-03  5.000000E-01  9.944272E-01  2.903062E-03  0.000000E+00  2.503298E-02 -6.153975E-03 -1.130284E-16 -1.393631E-02  0.000000E+00
  9.864800E-01  2.202943E-03  5.000000E-01  9.964383E-01  2.398700E-03  0.000000E+00  2.875545E-02 -7.339791E-03 -2.282370E-16 -8.716144E-02  0.000000E+00
  9.880230E-01  1.802236E-03  5.000000E-01  9.979968E-01  1.993949E-03  0.000000E+00  3.246244E-02 -8.459918E-03 -6.997918E-17 -1.777766E-01  0.000000E+00
  9.891220E-01  1.509396E-03  5.000000E-01  9.991069E-01  1.698153E-03  0.000000E+00  3.593404E-02 -9.745245E-03  1.223670E-15 -2.866117E-01  0.000000E+00
  9.897810E-01  1.330975E-03  5.000000E-01  9.997726E-01  1.517931E-03  0.000000E+00  5.276677E-02 -1.246478E-02  4.608018E-15 -3.054330E-01  0.000000E+00
  9.900000E-01  1.271080E-03  5.000000E-01  9.999938E-01  1.457431E-03  0.000000E+00  3.649650E-02 -2.273832E-03  1.209013E-14 -6.802242E-01  0.000000E+00
  9.900000E-01  1.680583E-03  5.000000E-01  9.999938E-01  1.871068E-03  0.000000E+00  2.127395E-03 -7.784579E-03  3.563772E-14 -9.796432E-01  0.000000E+00
  9.900000E-01  2.090086E-03  5.000000E-01  9.999938E-01  2.284705E-03  0.000000E+00 -5.415667E-04 -2.192988E-02  6.947891E-14 -8.244156E-01  0.000000E+00
  9.900000E-01  2.499589E-03  5.000000E-01  9.999938E-01  2.698341E-03  0.000000E+00 -1.402414E-04 -1.348290E-02  9.601492E-14 -7.967616E-01  0.000000E+00
  9.900000E-01  2.909077E-03  5.000000E-01  9.999938E-01  3.111963E-03  0.000000E+00  3.202732E-04 -8.312185E-03  1.144811E-13 -8.267649E-01  0.000000E+00
  9.900000E-01  3.318580E-03  5.000000E-01  9.999938E-01  3.525600E-03  0.000000E+00  4.473867E-03 -6.761032E-03  1.278059E-13 -7.914751E-01  0.000000E+00
  9.900000E-01  3.318580E-03  5.000000E-01  9.999938E-01  3.525600E-03  0.000000E+00  4.473867E-03 -6.761032E-03  1.278059E-13 -7.914751E-01  0.000000E+00
  9.897980E-01  3.422741E-03  5.000000E-01  9.997897E-01  3.630812E-03  0.000000E+00  5.444882E-03 -3.346170E-03  1.197987E-13 -7.432173E-01  0.000000E+00
  9.891900E-01  3.735219E-03  5.000000E-01  9.991756E-01  3.946445E-03  0.000000E+00  1.134682E-03 -5.196778E-04  8.501716E-14 -7.512677E-01  0.000000E+00
  9.881780E-01  4.255327E-03  5.000000E-01  9.981534E-01  4.471803E-03  0.000000E+00 -1.259792E-03  6.500479E-04  4.670269E-14 -7.583397E-01  0.000000E+00
  9.867570E-01  4.981764E-03  5.000000E-01  9.967180E-01  5.205573E-03  0.000000E+00 -2.625137E-03  1.326926E-03  1.900464E-14 -7.651804E-01  0.000000E+00
  9.849260E-01  5.911013E-03  5.000000E-01  9.948686E-01  6.144203E-03  0.000000E+00 -3.235345E-03  1.631815E-03  4.503674E-15 -7.749848E-01  0.000000E+00
  9.826810E-01  7.036588E-03  5.000000E-01  9.926009E-01  7.281141E-03  0.000000E+00 -3.242758E-03  1.615340E-03 -7.358836E-16 -7.841791E-01  0.000000E+00
  9.800160E-01  8.348746E-03  5.000000E-01  9.899090E-01  8.606544E-03  0.000000E+00 -2.935291E-03  1.430818E-03 -1.493857E-15 -7.898046E-01  0.000000E+00
  9.769240E-01  9.833409E-03  5.000000E-01  9.867858E-01  1.010619E-02  0.000000E+00 -2.610301E-03  1.233327E-03 -9.098813E-16 -7.919930E-01  0.000000E+00
  9.733970E-01  1.146943E-02  5.000000E-01  9.832232E-01  1.175873E-02  0.000000E+00 -2.454889E-03  1.111312E-03 -3.320760E-16 -7.927424E-01  0.000000E+00
  9.694240E-01  1.323031E-02  5.000000E-01  9.792101E-01  1.353739E-02  0.000000E+00 -2.528205E-03  1.088734E-03 -5.011132E-17 -7.939797E-01  0.000000E+00
  9.649940E-01  1.508932E-02  5.000000E-01  9.747354E-01  1.541516E-02  0.000000E+00 -2.827111E-03  1.158483E-03  2.746569E-17 -7.953852E-01  0.000000E+00
  9.600960E-01  1.702625E-02  5.000000E-01  9.697879E-01  1.737164E-02  0.000000E+00 -3.343485E-03  1.291088E-03  2.608363E-17 -7.958605E-01  0.000000E+00
  9.547180E-01  1.902092E-02  5.000000E-01  9.643556E-01  1.938645E-02  0.000000E+00 -3.937658E-03  1.402518E-03  1.108563E-17 -8.034107E-01  0.000000E+00
  9.488510E-01  2.105394E-02  5.000000E-01  9.584294E-01  2.144000E-02  0.000000E+00 -4.030747E-03  1.314769E-03  4.064109E-18 -8.415393E-01  0.000000E+00
  9.424820E-01  2.311005E-02  5.000000E-01  9.519961E-01  2.351686E-02  0.000000E+00 -2.464760E-03  7.541029E-04  4.887416E-18 -9.287529E-01  0.000000E+00
  9.356020E-01  2.517873E-02  5.000000E-01  9.450467E-01  2.560643E-02  0.000000E+00  2.027931E-03 -5.403711E-04  1.084347E-17 -1.045962E+00  0.000000E+00
  9.282010E-01  2.725381E-02  5.000000E-01  9.375709E-01  2.770245E-02  0.000000E+00  9.388086E-03 -2.458230E-03  2.221148E-17 -1.143415E+00  0.000000E+00
  9.202710E-01  2.933014E-02  5.000000E-01  9.295609E-01  2.979974E-02  0.000000E+00  1.714937E-02 -4.276811E-03  3.332838E-17 -1.187355E+00  0.000000E+00
  9.118010E-01  3.139550E-02  5.000000E-01  9.210054E-01  3.188594E-02  0.000000E+00  2.229109E-02 -5.227491E-03  3.691078E-17 -1.183735E+00  0.000000E+00
  9.027810E-01  3.343379E-02  5.000000E-01  9.118943E-01  3.394482E-02  0.000000E+00  2.407532E-02 -5.238223E-03  3.263123E-17 -1.156577E+00  0.000000E+00
  8.932000E-01  3.542924E-02  5.000000E-01  9.022166E-01  3.596040E-02  0.000000E+00  2.387455E-02 -4.768846E-03  2.507666E-17 -1.122497E+00  0.000000E+00
  8.830490E-01  3.736349E-02  5.000000E-01  8.919631E-01  3.791418E-02  0.000000E+00  2.318001E-02 -4.212612E-03  1.847961E-17 -1.087038E+00  0.000000E+00
  8.723190E-01  3.921555E-02  5.000000E-01  8.811248E-01  3.978493E-02  0.000000E+00  2.264383E-02 -3.705349E-03  1.543939E-17 -1.050883E+00  0.000000E+00
  8.723190E-01  3.921555E-02  5.000000E-01  8.811248E-01  3.978493E-02  0.000000E+00  2.264383E-02 -3.705349E-03  1.543939E-17 -1.050883E+00  0.000000E+00
  8.610010E-01  4.096465E-02  5.000000E-01  8.696926E-01  4.155170E-02  0.000000E+00  2.229464E-02 -3.245629E-03  1.296663E-17 -1.013805E+00  0.000000E+00
  8.490890E-01  4.259152E-02  5.000000E-01  8.576603E-01  4.319499E-02  0.000000E+00  2.197255E-02 -2.808010E-03  1.052847E-17 -9.758812E-01  0.000000E+00
  8.365770E-01  4.408026E-02  5.000000E-01  8.450220E-01  4.469875E-02  0.000000E+00  2.155853E-02 -2.388010E-03  9.618265E-18 -9.380674E-01  0.000000E+00
  8.234620E-01  4.542449E-02  5.000000E-01  8.317746E-01  4.605655E-02  0.000000E+00  2.102391E-02 -2.004911E-03  9.349916E-18 -9.026270E-01  0.000000E+00
  8.097400E-01  4.663366E-02  5.000000E-01  8.179141E-01  4.727793E-02  0.000000E+00  2.040306E-02 -1.693144E-03  9.227227E-18 -8.734289E-01  0.000000E+00
  7.954150E-01  4.774501E-02  5.000000E-01  8.034445E-01  4.840050E-02  0.000000E+00  1.976203E-02 -1.494259E-03  8.736460E-18 -8.554739E-01  0.000000E+00
  7.804870E-01  4.883723E-02  5.000000E-01  7.883658E-01  4.950375E-02  0.000000E+00  1.920498E-02 -1.435566E-03  7.966411E-18 -8.522284E-01  0.000000E+00
  7.649630E-01  5.001897E-02  5.000000E-01  7.726851E-01  5.069741E-02  0.000000E+00  1.889178E-02 -1.488810E-03  6.493970E-18 -8.612984E-01  0.000000E+00
  7.488530E-01  5.133381E-02  5.000000E-01  7.564125E-01  5.202553E-02  0.000000E+00  1.891914E-02 -1.602277E-03  3.170788E-18 -8.769847E-01  0.000000E+00
  7.321700E-01  5.279867E-02  5.000000E-01  7.395611E-01  5.350517E-02  0.000000E+00  1.922982E-02 -1.750901E-03 -1.367552E-18 -8.953091E-01  0.000000E+00
  7.149290E-01  5.442328E-02  5.000000E-01  7.221460E-01  5.514618E-02  0.000000E+00  1.970203E-02 -1.916158E-03 -6.556522E-18 -9.134573E-01  0.000000E+00
  6.971500E-01  5.620454E-02  5.000000E-01  7.041876E-01  5.694542E-02  0.000000E+00  2.023485E-02 -2.073010E-03 -1.215803E-17 -9.288342E-01  0.000000E+00
  6.788570E-01  5.811961E-02  5.000000E-01  6.857099E-01  5.887983E-02  0.000000E+00  2.077584E-02 -2.190032E-03 -1.654154E-17 -9.388342E-01  0.000000E+00
  6.600760E-01  6.011526E-02  5.000000E-01  6.667393E-01  6.089562E-02  0.000000E+00  2.129406E-02 -2.239604E-03 -1.857092E-17 -9.416590E-01  0.000000E+00
  6.408370E-01  6.211981E-02  5.000000E-01  6.473061E-01  6.292041E-02  0.000000E+00  2.174101E-02 -2.219299E-03 -1.992346E-17 -9.377851E-01  0.000000E+00
  6.211780E-01  6.408518E-02  5.000000E-01  6.274486E-01  6.490561E-02  0.000000E+00  2.208549E-02 -2.143679E-03 -1.988630E-17 -9.289158E-01  0.000000E+00
  6.011430E-01  6.597194E-02  5.000000E-01  6.072114E-01  6.681142E-02  0.000000E+00  2.234479E-02 -2.024175E-03 -1.817626E-17 -9.162666E-01  0.000000E+00
  5.807790E-01  6.774404E-02  5.000000E-01  5.866418E-01  6.860141E-02  0.000000E+00  2.254898E-02 -1.872074E-03 -1.722368E-17 -9.008017E-01  0.000000E+00
  5.601410E-01  6.937545E-02  5.000000E-01  5.657955E-01  7.024929E-02  0.000000E+00  2.272403E-02 -1.696259E-03 -1.495986E-17 -8.832256E-01  0.000000E+00
  5.392850E-01  7.084143E-02  5.000000E-01  5.447290E-01  7.173007E-02  0.000000E+00  2.288421E-02 -1.503581E-03 -1.168273E-17 -8.641758E-01  0.000000E+00
  5.182680E-01  7.212619E-02  5.000000E-01  5.234998E-01  7.302780E-02  0.000000E+00  2.302878E-02 -1.304969E-03 -9.676257E-18 -8.446318E-01  0.000000E+00
  4.971500E-01  7.322852E-02  5.000000E-01  5.021686E-01  7.414126E-02  0.000000E+00  2.316471E-02 -1.107580E-03 -8.868496E-18 -8.252782E-01  0.000000E+00
  4.759900E-01  7.414777E-02  5.000000E-01  4.807950E-01  7.506978E-02  0.000000E+00  2.330828E-02 -9.115167E-04 -8.327941E-18 -8.062356E-01  0.000000E+00
  2.733630E-06 -4.855736E-04  5.000000E-01  2.813636E-06 -3.169553E-04  0.000000E+00  4.685614E-04 -1.840384E-02  7.117262E-19  1.096934E+00  0.000000E+00
  4.455870E-05 -1.426566E-03  5.000000E-01  4.506092E-05 -1.267447E-03  0.000000E+00  2.258450E-03 -2.190408E-02  2.766775E-17  1.067607E+00  0.000000E+00
  2.731490E-04 -2.959049E-03  5.000000E-01  2.759588E-04 -2.815399E-03  0.000000E+00  6.592250E-03 -2.485870E-02  4.081523E-17  9.468014E-01  0.000000E+00
  9.950900E-04 -4.913844E-03  5.000000E-01  1.005188E-03 -4.789927E-03  0.000000E+00  1.277627E-02 -2.521895E-02  4.185566E-17  7.369918E-01  0.000000E+00
  2.349870E-03 -6.988785E-03  5.000000E-01  2.373644E-03 -6.885814E-03  0.000000E+00  1.846745E-02 -2.401672E-02  3.905647E-17  5.278305E-01  0.000000E+00
  4.254460E-03 -9.117064E-03  5.000000E-01  4.297460E-03 -9.035578E-03  0.000000E+00  2.308375E-02 -2.270196E-02  2.581593E-17  3.564440E-01  0.000000E+00
  6.687140E-03 -1.124006E-02  5.000000E-01  6.754697E-03 -1.118001E-02  0.000000E+00  2.708493E-02 -2.121625E-02  4.483235E-18  1.937376E-01  0.000000E+00
  9.634000E-03 -1.332023E-02  5.000000E-01  9.731305E-03 -1.328118E-02  0.000000E+00  3.034948E-02 -1.921587E-02 -7.778707E-18  2.840929E-02  0.000000E+00
  1.310530E-02 -1.528996E-02  5.000000E-01  1.323765E-02 -1.527079E-02  0.000000E+00  3.258141E-02 -1.656294E-02 -1.425770E-18 -1.355087E-01  0.000000E+00
  1.710810E-02 -1.709754E-02  5.000000E-01  1.728085E-02 -1.709661E-02  0.000000E+00  3.384715E-02 -1.378904E-02  2.322647E-17 -2.756137E-01  0.000000E+00
  2.163760E-02 -1.874355E-02  5.000000E-01  2.185608E-02 -1.875924E-02  0.000000E+00  3.453689E-02 -1.137182E-02  5.537799E-17 -3.825399E-01  0.000000E+00
  2.669190E-02 -2.023768E-02  5.000000E-01  2.696140E-02 -2.026845E-02  0.000000E+00  3.479571E-02 -9.238343E-03  7.825609E-17 -4.687657E-01  0.000000E+00
  3.228310E-02 -2.155578E-02  5.000000E-01  3.260904E-02 -2.159985E-02  0.000000E+00  3.458205E-02 -7.265136E-03  8.785115E-17 -5.439781E-01  0.000000E+00
  3.842170E-02 -2.268578E-02  5.000000E-01  3.880961E-02 -2.274126E-02  0.000000E+00  3.397898E-02 -5.528604E-03  8.929007E-17 -6.071348E-01  0.000000E+00
  4.511710E-02 -2.362846E-02  5.000000E-01  4.557260E-02 -2.369346E-02  0.000000E+00  3.311482E-02 -4.074702E-03  8.471152E-17 -6.569740E-01  0.000000E+00
  5.237940E-02 -2.438914E-02  5.000000E-01  5.290821E-02 -2.446182E-02  0.000000E+00  3.211183E-02 -2.908200E-03  7.679310E-17 -6.930901E-01  0.000000E+00
  6.021800E-02 -2.498353E-02  5.000000E-01  6.082593E-02 -2.506221E-02  0.000000E+00  3.108841E-02 -2.021217E-03  6.664489E-17 -7.154336E-01  0.000000E+00
  6.864140E-02 -2.543689E-02  5.000000E-01  6.933437E-02 -2.552015E-02  0.000000E+00  3.009533E-02 -1.369395E-03  5.570156E-17 -7.256172E-01  0.000000E+00
  7.765990E-02 -2.577027E-02  5.000000E-01  7.844390E-02 -2.585689E-02  0.000000E+00  2.911796E-02 -9.017774E-04  4.559120E-17 -7.254486E-01  0.000000E+00
  8.728340E-02 -2.600881E-02  5.000000E-01  8.816455E-02 -2.609784E-02  0.000000E+00  2.810619E-02 -5.914079E-04  3.758511E-17 -7.152969E-01  0.000000E+00
  9.752070E-02 -2.618473E-02  5.000000E-01  9.850519E-02 -2.627554E-02  0.000000E+00  2.693577E-02 -4.119990E-04  3.113886E-17 -6.951112E-01  0.000000E+00
  1.083810E-01 -2.633001E-02  5.000000E-01  1.094751E-01 -2.642229E-02  0.000000E+00  2.544830E-02 -3.367709E-04  2.455271E-17 -6.642484E-01  0.000000E+00
  1.198710E-01 -2.648043E-02  5.000000E-01  1.210811E-01 -2.657422E-02  0.000000E+00  2.359132E-02 -3.441545E-04  1.934252E-17 -6.209197E-01  0.000000E+00
  1.319970E-01 -2.667590E-02  5.000000E-01  1.333295E-01 -2.677166E-02  0.000000E+00  2.154897E-02 -4.083059E-04  1.571712E-17 -5.633925E-01  0.000000E+00
  1.319970E-01 -2.667590E-02  5.000000E-01  1.333295E-01 -2.677166E-02  0.000000E+00  2.154897E-02 -4.083059E-04  1.571712E-17 -5.633925E-01  0.000000E+00
  1.447640E-01 -2.695387E-02  5.000000E-01  1.462254E-01 -2.705244E-02  0.000000E+00  1.975850E-02 -5.071673E-04  1.121667E-17 -4.922367E-01  0.000000E+00
  1.581750E-01 -2.734877E-02  5.000000E-01  1.597718E-01 -2.745133E-02  0.000000E+00  1.871688E-02 -6.312405E-04  6.553028E-18 -4.138436E-01  0.000000E+00
  1.722290E-01 -2.788111E-02  5.000000E-01  1.739676E-01 -2.798904E-02  0.000000E+00  1.867590E-02 -7.699303E-04  3.451704E-18 -3.425497E-01  0.000000E+00
  1.869240E-01 -2.853783E-02  5.000000E-01  1.888110E-01 -2.865239E-02  0.000000E+00  1.948646E-02 -8.789617E-04  2.660326E-18 -2.967834E-01  0.000000E+00
  2.022540E-01 -2.924665E-02  5.000000E-01  2.042957E-01 -2.936837E-02  0.000000E+00  2.068715E-02 -8.555897E-04  2.911147E-18 -2.902278E-01  0.000000E+00
  2.182110E-01 -2.984495E-02  5.000000E-01  2.204138E-01 -2.997270E-02  0.000000E+00  2.178886E-02 -6.418036E-04  1.896721E-18 -3.194413E-01  0.000000E+00
  2.347810E-01 -3.020558E-02  5.000000E-01  2.371511E-01 -3.033697E-02  0.000000E+00  2.249665E-02 -3.208137E-04  1.341294E-18 -3.632133E-01  0.000000E+00
  2.519470E-01 -3.031839E-02  5.000000E-01  2.544904E-01 -3.045093E-02  0.000000E+00  2.264292E-02  3.219338E-06  1.442451E-18 -4.009197E-01  0.000000E+00
  2.696890E-01 -3.019192E-02  5.000000E-01  2.724115E-01 -3.032318E-02  0.000000E+00  2.217402E-02  2.773710E-04  1.660212E-18 -4.216437E-01  0.000000E+00
  2.879810E-01 -2.985720E-02  5.000000E-01  2.908881E-01 -2.998508E-02  0.000000E+00  2.125900E-02  4.621370E-04  1.010618E-18 -4.206705E-01  0.000000E+00
  3.067920E-01 -2.937533E-02  5.000000E-01  3.098890E-01 -2.949834E-02  0.000000E+00  2.025086E-02  5.383957E-04 -5.179118E-19 -3.988912E-01  0.000000E+00
  3.260870E-01 -2.883729E-02  5.000000E-01  3.293788E-01 -2.895487E-02  0.000000E+00  1.951104E-02  5.173760E-04 -2.833895E-19 -3.634607E-01  0.000000E+00
  3.458260E-01 -2.834213E-02  5.000000E-01  3.493171E-01 -2.845472E-02  0.000000E+00  1.919458E-02  4.603104E-04 -7.496430E-20 -3.282385E-01  0.000000E+00
  3.659650E-01 -2.788929E-02  5.000000E-01  3.696594E-01 -2.799731E-02  0.000000E+00  1.923148E-02  4.360635E-04 -1.186045E-18 -3.062193E-01  0.000000E+00
  3.864540E-01 -2.742743E-02  5.000000E-01  3.903552E-01 -2.753078E-02  0.000000E+00  1.945623E-02  4.672133E-04 -7.613398E-19 -3.008272E-01  0.000000E+00
  4.072410E-01 -2.690104E-02  5.000000E-01  4.113520E-01 -2.699908E-02  0.000000E+00  1.965803E-02  5.522966E-04  4.471016E-19 -3.076228E-01  0.000000E+00
  4.282690E-01 -2.625386E-02  5.000000E-01  4.325923E-01 -2.634537E-02  0.000000E+00  1.961006E-02  6.829437E-04  1.034773E-18 -3.187768E-01  0.000000E+00
  4.494800E-01 -2.542794E-02  5.000000E-01  4.540174E-01 -2.551111E-02  0.000000E+00  1.916622E-02  8.298937E-04  2.641320E-19 -3.248416E-01  0.000000E+00
  4.708130E-01 -2.440326E-02  5.000000E-01  4.755658E-01 -2.447608E-02  0.000000E+00  1.835213E-02  9.479875E-04 -1.334253E-18 -3.169762E-01  0.000000E+00
  4.922030E-01 -2.321031E-02  5.000000E-01  4.971717E-01 -2.327109E-02  0.000000E+00  1.733916E-02  1.018818E-03 -1.414253E-18 -2.918926E-01  0.000000E+00
  5.135860E-01 -2.188219E-02  5.000000E-01  5.187705E-01 -2.192957E-02  0.000000E+00  1.634922E-02  1.055948E-03 -1.083320E-18 -2.533850E-01  0.000000E+00
  5.348990E-01 -2.044910E-02  5.000000E-01  5.402987E-01 -2.048201E-02  0.000000E+00  1.555944E-02  1.076966E-03  1.846690E-19 -2.094141E-01  0.000000E+00
  5.560760E-01 -1.894245E-02  5.000000E-01  5.616895E-01 -1.896014E-02  0.000000E+00  1.502316E-02  1.096868E-03  1.512781E-18 -1.688484E-01  0.000000E+00
  4.759900E-01  7.414777E-02  5.000000E-01  4.807950E-01  7.506978E-02  0.000000E+00  2.330828E-02 -9.115167E-04 -8.327941E-18 -8.062356E-01  0.000000E+00
  4.548480E-01  7.488305E-02  5.000000E-01  4.594396E-01  7.581249E-02  0.000000E+00  2.346712E-02 -7.164419E-04 -7.830541E-18 -7.874642E-01  0.000000E+00
  4.337860E-01  7.543644E-02  5.000000E-01  4.381650E-01  7.637147E-02  0.000000E+00  2.364294E-02 -5.190314E-04 -7.744847E-18 -7.685423E-01  0.000000E+00
  4.128620E-01  7.580598E-02  5.000000E-01  4.170298E-01  7.674473E-02  0.000000E+00  2.383737E-02 -3.075756E-04 -7.862870E-18 -7.483236E-01  0.000000E+00
  3.921340E-01  7.597611E-02  5.000000E-01  3.960925E-01  7.691659E-02  0.000000E+00  2.403653E-02 -7.098910E-05 -7.947571E-18 -7.256210E-01  0.000000E+00
  3.716590E-01  7.593024E-02  5.000000E-01  3.754108E-01  7.687025E-02  0.000000E+00  2.420924E-02  1.941647E-04 -7.560183E-18 -6.998001E-01  0.000000E+00
  3.514890E-01  7.565319E-02  5.000000E-01  3.550372E-01  7.659041E-02  0.000000E+00  2.432454E-02  4.866848E-04 -6.708271E-18 -6.707285E-01  0.000000E+00
  3.316730E-01  7.513379E-02  5.000000E-01  3.350212E-01  7.606576E-02  0.000000E+00  2.435689E-02  7.989815E-04 -5.282380E-18 -6.390370E-01  0.000000E+00
  3.122580E-01  7.436904E-02  5.000000E-01  3.154102E-01  7.529329E-02  0.000000E+00  2.428174E-02  1.109385E-03 -3.852309E-18 -6.066335E-01  0.000000E+00
  2.932850E-01  7.338115E-02  5.000000E-01  2.962457E-01  7.429543E-02  0.000000E+00  2.409488E-02  1.395696E-03 -3.373072E-18 -5.757210E-01  0.000000E+00
  2.747930E-01  7.219995E-02  5.000000E-01  2.775670E-01  7.310230E-02  0.000000E+00  2.382501E-02  1.652959E-03 -3.324590E-18 -5.474157E-01  0.000000E+00
  2.568150E-01  7.085232E-02  5.000000E-01  2.594075E-01  7.174108E-02  0.000000E+00  2.351046E-02  1.886216E-03 -2.924353E-18 -5.220194E-01  0.000000E+00
  2.393810E-01  6.936108E-02  5.000000E-01  2.417975E-01  7.023477E-02  0.000000E+00  2.318562E-02  2.103406E-03 -3.601780E-18 -4.997523E-01  0.000000E+00
  2.225160E-01  6.774478E-02  5.000000E-01  2.247623E-01  6.860216E-02  0.000000E+00  2.287799E-02  2.310380E-03 -2.814873E-18 -4.818402E-01  0.000000E+00
  2.062420E-01  6.601780E-02  5.000000E-01  2.083240E-01  6.685775E-02  0.000000E+00  2.259045E-02  2.478816E-03 -1.191966E-18 -4.731291E-01  0.000000E+00
  1.905750E-01  6.423681E-02  5.000000E-01  1.924988E-01  6.505878E-02  0.000000E+00  2.234376E-02  2.551895E-03 -1.775994E-19 -4.808980E-01  0.000000E+00
  1.755290E-01  6.250533E-02  5.000000E-01  1.773010E-01  6.330982E-02  0.000000E+00  2.228490E-02  2.549311E-03 -3.206769E-19 -5.057746E-01  0.000000E+00
  1.611160E-01  6.086599E-02  5.000000E-01  1.627425E-01  6.165393E-02  0.000000E+00  2.259564E-02  2.552588E-03 -1.010415E-18 -5.407587E-01  0.000000E+00
  1.473410E-01  5.932164E-02  5.000000E-01  1.488284E-01  6.009400E-02  0.000000E+00  2.331343E-02  2.610269E-03 -1.366286E-18 -5.781805E-01  0.000000E+00
  1.342110E-01  5.785503E-02  5.000000E-01  1.355659E-01  5.861258E-02  0.000000E+00  2.432355E-02  2.737586E-03  2.204203E-19 -6.125217E-01  0.000000E+00
  1.217280E-01  5.644074E-02  5.000000E-01  1.229569E-01  5.718401E-02  0.000000E+00  2.544870E-02  2.934555E-03  3.553320E-18 -6.411148E-01  0.000000E+00
  1.098910E-01  5.505319E-02  5.000000E-01  1.110004E-01  5.578246E-02  0.000000E+00  2.655581E-02  3.206776E-03  5.130518E-18 -6.629593E-01  0.000000E+00
  9.869950E-02  5.366362E-02  5.000000E-01  9.969589E-02  5.437886E-02  0.000000E+00  2.759447E-02  3.569600E-03  7.026910E-18 -6.776913E-01  0.000000E+00
  8.814970E-02  5.224562E-02  5.000000E-01  8.903960E-02  5.294654E-02  0.000000E+00  2.857871E-02  4.049006E-03  1.060762E-17 -6.848489E-01  0.000000E+00
  8.814970E-02  5.224562E-02  5.000000E-01  8.903960E-02  5.294654E-02  0.000000E+00  2.857871E-02  4.049006E-03  1.060762E-17 -6.848489E-01  0.000000E+00
  7.823720E-02  5.077151E-02  5.000000E-01  7.902703E-02  5.145755E-02  0.000000E+00  2.954910E-02  4.687913E-03  1.498280E-17 -6.831428E-01  0.000000E+00
  6.895800E-02  4.920987E-02  5.000000E-01  6.965416E-02  4.988015E-02  0.000000E+00  3.051745E-02  5.528302E-03  1.951131E-17 -6.710685E-01  0.000000E+00
  6.030560E-02  4.753447E-02  5.000000E-01  6.091442E-02  4.818783E-02  0.000000E+00  3.146802E-02  6.624570E-03  2.137494E-17 -6.461588E-01  0.000000E+00
  5.227560E-02  4.571281E-02  5.000000E-01  5.280336E-02  4.634778E-02  0.000000E+00  3.234176E-02  8.037920E-03  1.977265E-17 -6.048996E-01  0.000000E+00
  4.486350E-02  4.371401E-02  5.000000E-01  4.531644E-02  4.432881E-02  0.000000E+00  3.299768E-02  9.789556E-03  1.503709E-17 -5.442606E-01  0.000000E+00
  3.806240E-02  4.151589E-02  5.000000E-01  3.844668E-02  4.210850E-02  0.000000E+00  3.325082E-02  1.187699E-02  6.572622E-18 -4.603619E-01  0.000000E+00
  3.186880E-02  3.909393E-02  5.000000E-01  3.219056E-02  3.966209E-02  0.000000E+00  3.285737E-02  1.420829E-02 -1.478625E-18 -3.500086E-01  0.000000E+00
  2.627530E-02  3.643848E-02  5.000000E-01  2.654059E-02  3.697984E-02  0.000000E+00  3.156311E-02  1.655783E-02 -4.799350E-18 -2.124248E-01  0.000000E+00
  2.127350E-02  3.355195E-02  5.000000E-01  2.148830E-02  3.406417E-02  0.000000E+00  2.924223E-02  1.865077E-02 -6.113877E-18 -4.766416E-02  0.000000E+00
  1.685790E-02  3.044150E-02  5.000000E-01  1.702813E-02  3.092231E-02  0.000000E+00  2.594331E-02  2.013023E-02 -9.503145E-18  1.387167E-01  0.000000E+00
  1.301460E-02  2.714222E-02  5.000000E-01  1.314603E-02  2.758974E-02  0.000000E+00  2.192459E-02  2.070571E-02 -1.602136E-17  3.371236E-01  0.000000E+00
  9.730790E-03  2.369950E-02  5.000000E-01  9.829072E-03  2.411226E-02  0.000000E+00  1.758633E-02  2.030733E-02 -2.394628E-17  5.384966E-01  0.000000E+00
  6.996180E-03  2.016828E-02  5.000000E-01  7.066857E-03  2.054539E-02  0.000000E+00  1.333526E-02  1.891534E-02 -2.662189E-17  7.278192E-01  0.000000E+00
  4.781010E-03  1.664003E-02  5.000000E-01  4.829325E-03  1.698153E-02  0.000000E+00  9.485046E-03  1.662404E-02 -2.106853E-17  8.914924E-01  0.000000E+00
  3.054950E-03  1.321027E-02  5.000000E-01  3.085841E-03  1.351714E-02  0.000000E+00  6.194439E-03  1.364892E-02 -1.560325E-17  1.024934E+00  0.000000E+00
  1.789910E-03  9.974135E-03  5.000000E-01  1.808031E-03  1.024834E-02  0.000000E+00  3.552256E-03  1.011994E-02 -1.662529E-17  1.123531E+00  0.000000E+00
  9.331870E-04  7.040698E-03  5.000000E-01  9.426596E-04  7.285292E-03  0.000000E+00  1.620664E-03  6.118985E-03 -1.900023E-17  1.183564E+00  0.000000E+00
  4.085430E-04  4.518463E-03  5.000000E-01  4.127195E-04  4.737595E-03  0.000000E+00  3.812116E-04  1.735466E-03 -2.184870E-17  1.207881E+00  0.000000E+00
  1.354760E-04  2.494708E-03  5.000000E-01  1.368960E-04  2.693411E-03  0.000000E+00 -2.395986E-04 -2.993306E-03 -2.959616E-17  1.204192E+00  0.000000E+00
  2.683130E-05  1.021577E-03  5.000000E-01  2.715456E-05  1.205409E-03  0.000000E+00 -3.440687E-04 -8.060703E-03 -3.929245E-17  1.180846E+00  0.000000E+00
  1.320070E-06  1.277081E-04  5.000000E-01  1.385807E-06  3.025172E-04  0.000000E+00 -2.077383E-04 -1.298544E-02 -4.138913E-17  1.140490E+00  0.000000E+00
 -5.188750E-08 -1.717858E-04  5.000000E-01  0.000000E+00  0.000000E+00  0.000000E+00 -4.372644E-05 -1.611095E-02 -2.699381E-17  1.105527E+00  0.000000E+00