 Title = "ADflow Slice Data"
Variables =  "CoordinateX"  "CoordinateY"  "CoordinateZ"  "XoC"  "YoC"  "ZoC" "VelocityX" "VelocityY" "VelocityZ" "CoefPressure" "Mach" 
Zone T= "Slice_0001 None Absolute Regular z = 0.50000000"
 Nodes =          192  Elements=          184  ZONETYPE=FELINESEG
 DATAPACKING=POINT
  5.560760E-01 -1.893823E-02  5.000000E-01  5.616895E-01 -1.895589E-02  0.000000E+00  1.497491E-02  1.091506E-03  4.222616E-19 -1.648911E-01  0.000000E+00
  5.770550E-01 -1.737466E-02  5.000000E-01  5.828802E-01 -1.737653E-02  0.000000E+00  1.464565E-02  1.127371E-03 -5.067007E-19 -1.362904E-01  0.000000E+00
  5.977760E-01 -1.573258E-02  5.000000E-01  6.038104E-01 -1.571788E-02  0.000000E+00  1.431214E-02  1.178054E-03  5.128663E-19 -1.161491E-01  0.000000E+00
  6.181820E-01 -1.398919E-02  5.000000E-01  6.244224E-01 -1.395688E-02  0.000000E+00  1.384098E-02  1.234533E-03  2.710553E-18 -9.822115E-02  0.000000E+00
  6.382180E-01 -1.212101E-02  5.000000E-01  6.446607E-01 -1.206985E-02  0.000000E+00  1.316029E-02  1.282373E-03  2.392014E-18 -7.594880E-02  0.000000E+00
  6.578350E-01 -1.011784E-02  5.000000E-01  6.644757E-01 -1.004646E-02  0.000000E+00  1.227116E-02  1.305116E-03 -6.952026E-20 -4.546290E-02  0.000000E+00
  6.769910E-01 -7.989724E-03  5.000000E-01  6.838251E-01 -7.896858E-03  0.000000E+00  1.122208E-02  1.292532E-03 -9.679408E-19 -6.941941E-03  0.000000E+00
  6.956490E-01 -5.756574E-03  5.000000E-01  7.026714E-01 -5.641164E-03  0.000000E+00  1.007557E-02  1.241328E-03 -8.828186E-19  3.677133E-02  0.000000E+00
  7.137810E-01 -3.452084E-03  5.000000E-01  7.209864E-01 -3.313411E-03  0.000000E+00  8.888913E-03  1.152654E-03 -8.607789E-19  8.255643E-02  0.000000E+00
  7.313660E-01 -1.121163E-03  5.000000E-01  7.387490E-01 -9.589607E-04  0.000000E+00  7.704821E-03  1.034463E-03  6.471184E-21  1.279148E-01  0.000000E+00
  7.483850E-01  1.196467E-03  5.000000E-01  7.559398E-01  1.382066E-03  0.000000E+00  6.558609E-03  9.008925E-04  1.104059E-18  1.711625E-01  0.000000E+00
  7.648220E-01  3.475078E-03  5.000000E-01  7.725427E-01  3.683678E-03  0.000000E+00  5.495484E-03  7.663091E-04  1.188781E-18  2.113712E-01  0.000000E+00
  7.806630E-01  5.697049E-03  5.000000E-01  7.885436E-01  5.928079E-03  0.000000E+00  4.584865E-03  6.363910E-04 -1.325272E-19  2.488508E-01  0.000000E+00
  7.958970E-01  7.794411E-03  5.000000E-01  8.039314E-01  8.046613E-03  0.000000E+00  3.919084E-03  5.107523E-04 -6.883790E-19  2.851481E-01  0.000000E+00
  8.105170E-01  9.583489E-03  5.000000E-01  8.186990E-01  9.853752E-03  0.000000E+00  3.560383E-03  3.971464E-04  1.205538E-18  3.175772E-01  0.000000E+00
  8.245160E-01  1.097251E-02  5.000000E-01  8.328393E-01  1.125679E-02  0.000000E+00  3.495793E-03  3.030130E-04  1.758512E-19  3.407881E-01  0.000000E+00
  8.378940E-01  1.195946E-02  5.000000E-01  8.463523E-01  1.225371E-02  0.000000E+00  3.664364E-03  2.235070E-04 -2.078238E-18  3.542712E-01  0.000000E+00
  8.506490E-01  1.258683E-02  5.000000E-01  8.592361E-01  1.288741E-02  0.000000E+00  4.000245E-03  1.494724E-04 -1.516982E-18  3.609878E-01  0.000000E+00
  8.627850E-01  1.291316E-02  5.000000E-01  8.714946E-01  1.321703E-02  0.000000E+00  4.449320E-03  7.367698E-05 -1.125894E-18  3.634668E-01  0.000000E+00
  8.743060E-01  1.299818E-02  5.000000E-01  8.831319E-01  1.330291E-02  0.000000E+00  4.967961E-03 -7.803169E-06 -1.655896E-18  3.628490E-01  0.000000E+00
  8.852170E-01  1.289363E-02  5.000000E-01  8.941530E-01  1.319730E-02  0.000000E+00  5.521877E-03 -9.637791E-05 -2.286871E-18  3.597717E-01  0.000000E+00
  8.955250E-01  1.264055E-02  5.000000E-01  9.045651E-01  1.294168E-02  0.000000E+00  6.086987E-03 -1.920600E-04 -1.269607E-18  3.547583E-01  0.000000E+00
  9.052400E-01  1.227198E-02  5.000000E-01  9.143782E-01  1.256938E-02  0.000000E+00  6.649970E-03 -2.948303E-04  5.389078E-19  3.482153E-01  0.000000E+00
  9.143710E-01  1.181360E-02  5.000000E-01  9.236013E-01  1.210638E-02  0.000000E+00  7.209596E-03 -4.074751E-04  9.987410E-19  3.405743E-01  0.000000E+00
  9.143710E-01  1.181360E-02  5.000000E-01  9.236013E-01  1.210638E-02  0.000000E+00  7.209596E-03 -4.074751E-04  9.987410E-19  3.405743E-01  0.000000E+00
  9.229270E-01  1.128036E-02  5.000000E-01  9.322437E-01  1.156775E-02  0.000000E+00  7.776149E-03 -5.355322E-04  1.213423E-18  3.320745E-01  0.000000E+00
  9.309180E-01  1.068155E-02  5.000000E-01  9.403154E-01  1.096290E-02  0.000000E+00  8.366973E-03 -6.842822E-04  7.888201E-20  3.224642E-01  0.000000E+00
  9.383550E-01  1.002586E-02  5.000000E-01  9.478274E-01  1.030059E-02  0.000000E+00  9.002755E-03 -8.586703E-04 -6.953845E-19  3.112799E-01  0.000000E+00
  9.452490E-01  9.322095E-03  5.000000E-01  9.547910E-01  9.589719E-03  0.000000E+00  9.707069E-03 -1.065460E-03 -1.250582E-19  2.981382E-01  0.000000E+00
  9.516100E-01  8.578731E-03  5.000000E-01  9.612163E-01  8.838851E-03  0.000000E+00  1.050647E-02 -1.313293E-03 -6.834780E-19  2.826407E-01  0.000000E+00
  9.574470E-01  7.805322E-03  5.000000E-01  9.671122E-01  8.057634E-03  0.000000E+00  1.142869E-02 -1.611073E-03 -1.297058E-18  2.641879E-01  0.000000E+00
  9.627730E-01  7.013146E-03  5.000000E-01  9.724919E-01  7.257462E-03  0.000000E+00  1.250198E-02 -1.968344E-03 -8.172695E-19  2.420939E-01  0.000000E+00
  9.675950E-01  6.215675E-03  5.000000E-01  9.773626E-01  6.451941E-03  0.000000E+00  1.375757E-02 -2.394694E-03 -1.995970E-19  2.156394E-01  0.000000E+00
  9.719240E-01  5.428046E-03  5.000000E-01  9.817353E-01  5.656361E-03  0.000000E+00  1.523606E-02 -2.900436E-03  7.980143E-19  1.839972E-01  0.000000E+00
  9.757700E-01  4.666703E-03  5.000000E-01  9.856201E-01  4.887332E-03  0.000000E+00  1.700117E-02 -3.502021E-03  3.677937E-18  1.463368E-01  0.000000E+00
  9.791410E-01  3.948196E-03  5.000000E-01  9.890252E-01  4.161571E-03  0.000000E+00  1.915246E-02 -4.225017E-03  2.079576E-18  1.017582E-01  0.000000E+00
  9.820450E-01  3.288452E-03  5.000000E-01  9.919585E-01  3.495168E-03  0.000000E+00  2.180834E-02 -5.100882E-03 -2.667222E-17  4.891803E-02  0.000000E+00
  9.844890E-01  2.702256E-03  5.000000E-01  9.944272E-01  2.903055E-03  0.000000E+00  2.503307E-02 -6.153971E-03 -1.133264E-16 -1.388960E-02  0.000000E+00
  9.864800E-01  2.202938E-03  5.000000E-01  9.964383E-01  2.398696E-03  0.000000E+00  2.875510E-02 -7.339672E-03 -2.265728E-16 -8.711081E-02  0.000000E+00
  9.880230E-01  1.802233E-03  5.000000E-01  9.979968E-01  1.993946E-03  0.000000E+00  3.246113E-02 -8.459538E-03 -6.628324E-17 -1.777199E-01  0.000000E+00
  9.891220E-01  1.509394E-03  5.000000E-01  9.991069E-01  1.698151E-03  0.000000E+00  3.593088E-02 -9.744382E-03  1.222895E-15 -2.865465E-01  0.000000E+00
  9.897810E-01  1.330974E-03  5.000000E-01  9.997726E-01  1.517929E-03  0.000000E+00  5.276087E-02 -1.246335E-02  4.585773E-15 -3.053455E-01  0.000000E+00
  9.900000E-01  1.271079E-03  5.000000E-01  9.999938E-01  1.457430E-03  0.000000E+00  3.649228E-02 -2.273430E-03  1.206626E-14 -6.801178E-01  0.000000E+00
  9.900000E-01  1.680582E-03  5.000000E-01  9.999938E-01  1.871067E-03  0.000000E+00  2.126921E-03 -7.784803E-03  3.561668E-14 -9.795221E-01  0.000000E+00
  9.900000E-01  2.090085E-03  5.000000E-01  9.999938E-01  2.284704E-03  0.000000E+00 -5.415156E-04 -2.192838E-02  6.943292E-14 -8.242833E-01  0.000000E+00
  9.900000E-01  2.499588E-03  5.000000E-01  9.999938E-01  2.698341E-03  0.000000E+00 -1.402593E-04 -1.348012E-02  9.594678E-14 -7.966369E-01  0.000000E+00
  9.900000E-01  2.909076E-03  5.000000E-01  9.999938E-01  3.111963E-03  0.000000E+00  3.203084E-04 -8.310417E-03  1.143986E-13 -8.266562E-01  0.000000E+00
  9.900000E-01  3.318579E-03  5.000000E-01  9.999938E-01  3.525599E-03  0.000000E+00  4.475205E-03 -6.761529E-03  1.277182E-13 -7.913627E-01  0.000000E+00
  9.900000E-01  3.318579E-03  5.000000E-01  9.999938E-01  3.525599E-03  0.000000E+00  4.475205E-03 -6.761529E-03  1.277182E-13 -7.913627E-01  0.000000E+00
  9.897980E-01  3.422740E-03  5.000000E-01  9.997897E-01  3.630811E-03  0.000000E+00  5.447555E-03 -3.347634E-03  1.197220E-13 -7.430934E-01  0.000000E+00
  9.891900E-01  3.735217E-03  5.000000E-01  9.991756E-01  3.946443E-03  0.000000E+00  1.137721E-03 -5.212115E-04  8.496733E-14 -7.511429E-01  0.000000E+00
  9.881780E-01  4.255324E-03  5.000000E-01  9.981534E-01  4.471800E-03  0.000000E+00 -1.256656E-03  6.484393E-04  4.668100E-14 -7.582047E-01  0.000000E+00
  9.867570E-01  4.981760E-03  5.000000E-01  9.967180E-01  5.205569E-03  0.000000E+00 -2.622549E-03  1.325597E-03  1.900094E-14 -7.650338E-01  0.000000E+00
  9.849260E-01  5.911007E-03  5.000000E-01  9.948686E-01  6.144197E-03  0.000000E+00 -3.233691E-03  1.630971E-03  4.507479E-15 -7.748326E-01  0.000000E+00
  9.826810E-01  7.036580E-03  5.000000E-01  9.926009E-01  7.281132E-03  0.000000E+00 -3.241966E-03  1.614937E-03 -7.319648E-16 -7.840281E-01  0.000000E+00
  9.800160E-01  8.348734E-03  5.000000E-01  9.899090E-01  8.606532E-03  0.000000E+00 -2.934956E-03  1.430651E-03 -1.491508E-15 -7.896590E-01  0.000000E+00
  9.769240E-01  9.833394E-03  5.000000E-01  9.867858E-01  1.010618E-02  0.000000E+00 -2.609923E-03  1.233153E-03 -9.078155E-16 -7.918526E-01  0.000000E+00
  9.733970E-01  1.146941E-02  5.000000E-01  9.832232E-01  1.175871E-02  0.000000E+00 -2.454099E-03  1.110963E-03 -3.314269E-16 -7.926030E-01  0.000000E+00
  9.694240E-01  1.323029E-02  5.000000E-01  9.792101E-01  1.353736E-02  0.000000E+00 -2.526814E-03  1.088112E-03 -5.021802E-17 -7.938391E-01  0.000000E+00
  9.649940E-01  1.508929E-02  5.000000E-01  9.747354E-01  1.541513E-02  0.000000E+00 -2.824904E-03  1.157535E-03  2.806666E-17 -7.952511E-01  0.000000E+00
  9.600960E-01  1.702621E-02  5.000000E-01  9.697879E-01  1.737161E-02  0.000000E+00 -3.340367E-03  1.289918E-03  2.607653E-17 -7.957269E-01  0.000000E+00
  9.547180E-01  1.902088E-02  5.000000E-01  9.643556E-01  1.938641E-02  0.000000E+00 -3.934843E-03  1.401636E-03  1.038048E-17 -8.032057E-01  0.000000E+00
  9.488510E-01  2.105390E-02  5.000000E-01  9.584294E-01  2.143995E-02  0.000000E+00 -4.032186E-03  1.315298E-03  2.554218E-18 -8.411451E-01  0.000000E+00
  9.424820E-01  2.311000E-02  5.000000E-01  9.519961E-01  2.351681E-02  0.000000E+00 -2.476641E-03  7.576062E-04  3.362664E-18 -9.281565E-01  0.000000E+00
  9.356020E-01  2.517868E-02  5.000000E-01  9.450467E-01  2.560637E-02  0.000000E+00  2.001634E-03 -5.330444E-04  1.131018E-17 -1.045346E+00  0.000000E+00
  9.282010E-01  2.725375E-02  5.000000E-01  9.375709E-01  2.770239E-02  0.000000E+00  9.352472E-03 -2.448625E-03  2.307410E-17 -1.143000E+00  0.000000E+00
  9.202710E-01  2.933008E-02  5.000000E-01  9.295609E-01  2.979968E-02  0.000000E+00  1.711899E-02 -4.268889E-03  3.416581E-17 -1.187197E+00  0.000000E+00
  9.118010E-01  3.139543E-02  5.000000E-01  9.210054E-01  3.188587E-02  0.000000E+00  2.227617E-02 -5.223804E-03  3.777921E-17 -1.183738E+00  0.000000E+00
  9.027810E-01  3.343372E-02  5.000000E-01  9.118943E-01  3.394474E-02  0.000000E+00  2.407309E-02 -5.237709E-03  3.216725E-17 -1.156637E+00  0.000000E+00
  8.932000E-01  3.542916E-02  5.000000E-01  9.022166E-01  3.596033E-02  0.000000E+00  2.387718E-02 -4.769387E-03  2.421002E-17 -1.122566E+00  0.000000E+00
  8.830490E-01  3.736341E-02  5.000000E-01  8.919631E-01  3.791410E-02  0.000000E+00  2.318242E-02 -4.213063E-03  1.917953E-17 -1.087103E+00  0.000000E+00
  8.723190E-01  3.921547E-02  5.000000E-01  8.811248E-01  3.978485E-02  0.000000E+00  2.264474E-02 -3.705506E-03  1.596166E-17 -1.050946E+00  0.000000E+00
  8.723190E-01  3.921547E-02  5.000000E-01  8.811248E-01  3.978485E-02  0.000000E+00  2.264474E-02 -3.705506E-03  1.596166E-17 -1.050946E+00  0.000000E+00
  8.610010E-01  4.096458E-02  5.000000E-01  8.696926E-01  4.155162E-02  0.000000E+00  2.229453E-02 -3.245621E-03  1.247349E-17 -1.013868E+00  0.000000E+00
  8.490890E-01  4.259144E-02  5.000000E-01  8.576603E-01  4.319491E-02  0.000000E+00  2.197213E-02 -2.807965E-03  1.053720E-17 -9.759457E-01  0.000000E+00
  8.365770E-01  4.408019E-02  5.000000E-01  8.450220E-01  4.469869E-02  0.000000E+00  2.155820E-02 -2.387986E-03  9.581014E-18 -9.381343E-01  0.000000E+00
  8.234620E-01  4.542443E-02  5.000000E-01  8.317746E-01  4.605650E-02  0.000000E+00  2.102377E-02 -2.004915E-03  8.946665E-18 -9.026964E-01  0.000000E+00
  8.097400E-01  4.663361E-02  5.000000E-01  8.179141E-01  4.727789E-02  0.000000E+00  2.040309E-02 -1.693166E-03  9.642411E-18 -8.735003E-01  0.000000E+00
  7.954150E-01  4.774498E-02  5.000000E-01  8.034445E-01  4.840047E-02  0.000000E+00  1.976217E-02 -1.494290E-03  9.830801E-18 -8.555464E-01  0.000000E+00
  7.804870E-01  4.883722E-02  5.000000E-01  7.883658E-01  4.950373E-02  0.000000E+00  1.920519E-02 -1.435599E-03  8.575997E-18 -8.523002E-01  0.000000E+00
  7.649630E-01  5.001897E-02  5.000000E-01  7.726851E-01  5.069741E-02  0.000000E+00  1.889199E-02 -1.488840E-03  6.849683E-18 -8.613682E-01  0.000000E+00
  7.488530E-01  5.133382E-02  5.000000E-01  7.564125E-01  5.202554E-02  0.000000E+00  1.891932E-02 -1.602302E-03  3.588176E-18 -8.770516E-01  0.000000E+00
  7.321700E-01  5.279868E-02  5.000000E-01  7.395611E-01  5.350519E-02  0.000000E+00  1.922993E-02 -1.750916E-03 -1.037664E-18 -8.953725E-01  0.000000E+00
  7.149290E-01  5.442330E-02  5.000000E-01  7.221460E-01  5.514620E-02  0.000000E+00  1.970204E-02 -1.916160E-03 -7.622404E-18 -9.135172E-01  0.000000E+00
  6.971500E-01  5.620456E-02  5.000000E-01  7.041876E-01  5.694544E-02  0.000000E+00  2.023474E-02 -2.072996E-03 -1.331399E-17 -9.288907E-01  0.000000E+00
  6.788570E-01  5.811962E-02  5.000000E-01  6.857099E-01  5.887984E-02  0.000000E+00  2.077563E-02 -2.190004E-03 -1.623357E-17 -9.388878E-01  0.000000E+00
  6.600760E-01  6.011527E-02  5.000000E-01  6.667393E-01  6.089564E-02  0.000000E+00  2.129375E-02 -2.239572E-03 -1.971329E-17 -9.417114E-01  0.000000E+00
  6.408370E-01  6.211982E-02  5.000000E-01  6.473061E-01  6.292042E-02  0.000000E+00  2.174063E-02 -2.219298E-03 -2.117298E-17 -9.378401E-01  0.000000E+00
  6.211780E-01  6.408525E-02  5.000000E-01  6.274486E-01  6.490569E-02  0.000000E+00  2.208510E-02 -2.143768E-03 -2.042751E-17 -9.289791E-01  0.000000E+00
  6.011430E-01  6.597218E-02  5.000000E-01  6.072114E-01  6.681167E-02  0.000000E+00  2.234452E-02 -2.024427E-03 -1.891458E-17 -9.163453E-01  0.000000E+00
  5.807790E-01  6.774461E-02  5.000000E-01  5.866418E-01  6.860199E-02  0.000000E+00  2.254899E-02 -1.872563E-03 -1.599261E-17 -9.009030E-01  0.000000E+00
  5.601410E-01  6.937658E-02  5.000000E-01  5.657955E-01  7.025043E-02  0.000000E+00  2.272449E-02 -1.697046E-03 -1.395614E-17 -8.833548E-01  0.000000E+00
  5.392850E-01  7.084337E-02  5.000000E-01  5.447290E-01  7.173203E-02  0.000000E+00  2.288535E-02 -1.504637E-03 -1.221435E-17 -8.643288E-01  0.000000E+00
  5.182680E-01  7.212912E-02  5.000000E-01  5.234998E-01  7.303076E-02  0.000000E+00  2.303084E-02 -1.306105E-03 -1.089159E-17 -8.447893E-01  0.000000E+00
  4.971500E-01  7.323234E-02  5.000000E-01  5.021686E-01  7.414512E-02  0.000000E+00  2.316772E-02 -1.108509E-03 -1.047436E-17 -8.254106E-01  0.000000E+00
  4.759900E-01  7.415214E-02  5.000000E-01  4.807950E-01  7.507420E-02  0.000000E+00  2.331190E-02 -9.119319E-04 -9.114274E-18 -8.063095E-01  0.000000E+00
  2.733630E-06 -4.855736E-04  5.000000E-01  2.813636E-06 -3.169552E-04  0.000000E+00  4.685121E-04 -1.840194E-02  8.379061E-19  1.096956E+00  0.000000E+00
  4.455870E-05 -1.426565E-03  5.000000E-01  4.506092E-05 -1.267446E-03  0.000000E+00  2.258255E-03 -2.190212E-02  2.678410E-17  1.067634E+00  0.000000E+00
  2.731490E-04 -2.959048E-03  5.000000E-01  2.759588E-04 -2.815398E-03  0.000000E+00  6.591771E-03 -2.485682E-02  4.036485E-17  9.468412E-01  0.000000E+00
  9.950900E-04 -4.913842E-03  5.000000E-01  1.005188E-03 -4.789926E-03  0.000000E+00  1.277548E-02 -2.521734E-02  4.179821E-17  7.370465E-01  0.000000E+00
  2.349870E-03 -6.988784E-03  5.000000E-01  2.373644E-03 -6.885813E-03  0.000000E+00  1.846643E-02 -2.401541E-02  3.943883E-17  5.278954E-01  0.000000E+00
  4.254460E-03 -9.117067E-03  5.000000E-01  4.297460E-03 -9.035580E-03  0.000000E+00  2.308256E-02 -2.270086E-02  2.751591E-17  3.565149E-01  0.000000E+00
  6.687140E-03 -1.124007E-02  5.000000E-01  6.754697E-03 -1.118002E-02  0.000000E+00  2.708357E-02 -2.121531E-02  6.120623E-18  1.938141E-01  0.000000E+00
  9.634000E-03 -1.332026E-02  5.000000E-01  9.731305E-03 -1.328120E-02  0.000000E+00  3.034800E-02 -1.921513E-02 -5.959727E-18  2.849285E-02  0.000000E+00
  1.310530E-02 -1.529002E-02  5.000000E-01  1.323765E-02 -1.527085E-02  0.000000E+00  3.257985E-02 -1.656245E-02 -1.228548E-20 -1.354159E-01  0.000000E+00
  1.710810E-02 -1.709764E-02  5.000000E-01  1.728085E-02 -1.709671E-02  0.000000E+00  3.384559E-02 -1.378882E-02  2.368747E-17 -2.755099E-01  0.000000E+00
  2.163760E-02 -1.874371E-02  5.000000E-01  2.185608E-02 -1.875940E-02  0.000000E+00  3.453536E-02 -1.137188E-02  5.585455E-17 -3.824241E-01  0.000000E+00
  2.669190E-02 -2.023793E-02  5.000000E-01  2.696140E-02 -2.026871E-02  0.000000E+00  3.479425E-02 -9.238666E-03  7.819662E-17 -4.686371E-01  0.000000E+00
  3.228310E-02 -2.155616E-02  5.000000E-01  3.260904E-02 -2.160024E-02  0.000000E+00  3.458064E-02 -7.265721E-03  8.822213E-17 -5.438362E-01  0.000000E+00
  3.842170E-02 -2.268633E-02  5.000000E-01  3.880961E-02 -2.274182E-02  0.000000E+00  3.397761E-02 -5.529438E-03  9.137126E-17 -6.069782E-01  0.000000E+00
  4.511710E-02 -2.362924E-02  5.000000E-01  4.557260E-02 -2.369425E-02  0.000000E+00  3.311343E-02 -4.075774E-03  8.586028E-17 -6.568005E-01  0.000000E+00
  5.237940E-02 -2.439022E-02  5.000000E-01  5.290821E-02 -2.446291E-02  0.000000E+00  3.211038E-02 -2.909506E-03  7.682955E-17 -6.928967E-01  0.000000E+00
  6.021800E-02 -2.498499E-02  5.000000E-01  6.082593E-02 -2.506369E-02  0.000000E+00  3.108696E-02 -2.022764E-03  6.761960E-17 -7.152165E-01  0.000000E+00
  6.864140E-02 -2.543883E-02  5.000000E-01  6.933437E-02 -2.552211E-02  0.000000E+00  3.009402E-02 -1.371197E-03  5.556970E-17 -7.253719E-01  0.000000E+00
  7.765990E-02 -2.577281E-02  5.000000E-01  7.844390E-02 -2.585946E-02  0.000000E+00  2.911690E-02 -9.038377E-04  4.358742E-17 -7.251696E-01  0.000000E+00
  8.728340E-02 -2.601210E-02  5.000000E-01  8.816455E-02 -2.610116E-02  0.000000E+00  2.810497E-02 -5.937168E-04  3.520447E-17 -7.149774E-01  0.000000E+00
  9.752070E-02 -2.618894E-02  5.000000E-01  9.850519E-02 -2.627978E-02  0.000000E+00  2.693302E-02 -4.145264E-04  2.913391E-17 -6.947409E-01  0.000000E+00
  1.083810E-01 -2.633533E-02  5.000000E-01  1.094751E-01 -2.642765E-02  0.000000E+00  2.544167E-02 -3.394587E-04  2.396279E-17 -6.638073E-01  0.000000E+00
  1.198710E-01 -2.648709E-02  5.000000E-01  1.210811E-01 -2.658094E-02  0.000000E+00  2.357862E-02 -3.469016E-04  1.833823E-17 -6.203662E-01  0.000000E+00
  1.319970E-01 -2.668415E-02  5.000000E-01  1.333295E-01 -2.678000E-02  0.000000E+00  2.152988E-02 -4.109791E-04  1.271588E-17 -5.626565E-01  0.000000E+00
  1.319970E-01 -2.668415E-02  5.000000E-01  1.333295E-01 -2.678000E-02  0.000000E+00  2.152988E-02 -4.109791E-04  1.271588E-17 -5.626565E-01  0.000000E+00
  1.447640E-01 -2.696402E-02  5.000000E-01  1.462254E-01 -2.706270E-02  0.000000E+00  1.973513E-02 -5.096798E-04  8.380428E-18 -4.912397E-01  0.000000E+00
  1.581750E-01 -2.736115E-02  5.000000E-01  1.597718E-01 -2.746383E-02  0.000000E+00  1.869182E-02 -6.336255E-04  5.200541E-18 -4.125491E-01  0.000000E+00
  1.722290E-01 -2.789605E-02  5.000000E-01  1.739676E-01 -2.800413E-02  0.000000E+00  1.864906E-02 -7.722839E-04  2.201048E-18 -3.409974E-01  0.000000E+00
  1.869240E-01 -2.855563E-02  5.000000E-01  1.888110E-01 -2.867037E-02  0.000000E+00  1.945353E-02 -8.812745E-04  1.267112E-18 -2.950467E-01  0.000000E+00
  2.022540E-01 -2.926752E-02  5.000000E-01  2.042957E-01 -2.938945E-02  0.000000E+00  2.064105E-02 -8.577781E-04  1.171302E-18 -2.883002E-01  0.000000E+00
  2.182110E-01 -2.986889E-02  5.000000E-01  2.204138E-01 -2.999689E-02  0.000000E+00  2.172368E-02 -6.439885E-04 -5.901964E-19 -3.171489E-01  0.000000E+00
  2.347810E-01 -3.023236E-02  5.000000E-01  2.371511E-01 -3.036403E-02  0.000000E+00  2.241352E-02 -3.232632E-04 -6.351289E-19 -3.602679E-01  0.000000E+00
  2.519470E-01 -3.034754E-02  5.000000E-01  2.544904E-01 -3.048037E-02  0.000000E+00  2.255637E-02  5.999587E-07  3.259962E-19 -3.971398E-01  0.000000E+00
  2.696890E-01 -3.022264E-02  5.000000E-01  2.724115E-01 -3.035420E-02  0.000000E+00  2.211263E-02  2.755499E-04 -5.744237E-19 -4.172374E-01  0.000000E+00
  2.879810E-01 -2.988829E-02  5.000000E-01  2.908881E-01 -3.001648E-02  0.000000E+00  2.125605E-02  4.628864E-04 -3.225421E-19 -4.163996E-01  0.000000E+00
  3.067920E-01 -2.940511E-02  5.000000E-01  3.098890E-01 -2.952843E-02  0.000000E+00  2.033013E-02  5.432702E-04  5.814350E-19 -3.959626E-01  0.000000E+00
  3.260870E-01 -2.886362E-02  5.000000E-01  3.293788E-01 -2.898147E-02  0.000000E+00  1.967724E-02  5.265557E-04  1.647727E-19 -3.631295E-01  0.000000E+00
  3.458260E-01 -2.836253E-02  5.000000E-01  3.493171E-01 -2.847532E-02  0.000000E+00  1.943118E-02  4.726408E-04 -5.970345E-19 -3.313128E-01  0.000000E+00
  3.659650E-01 -2.790185E-02  5.000000E-01  3.696594E-01 -2.800999E-02  0.000000E+00  1.950307E-02  4.500942E-04  7.387020E-19 -3.127475E-01  0.000000E+00
  3.864540E-01 -2.743130E-02  5.000000E-01  3.903552E-01 -2.753469E-02  0.000000E+00  1.971252E-02  4.814069E-04  1.727637E-18 -3.100530E-01  0.000000E+00
  4.072410E-01 -2.689655E-02  5.000000E-01  4.113520E-01 -2.699454E-02  0.000000E+00  1.984192E-02  5.643343E-04 -1.746951E-18 -3.180642E-01  0.000000E+00
  4.282690E-01 -2.624262E-02  5.000000E-01  4.325923E-01 -2.633401E-02  0.000000E+00  1.967568E-02  6.895970E-04 -3.431605E-18 -3.283775E-01  0.000000E+00
  4.494800E-01 -2.541284E-02  5.000000E-01  4.540174E-01 -2.549585E-02  0.000000E+00  1.910214E-02  8.285322E-04 -1.597134E-18 -3.313968E-01  0.000000E+00
  4.708130E-01 -2.438752E-02  5.000000E-01  4.755658E-01 -2.446019E-02  0.000000E+00  1.819235E-02  9.390440E-04  3.434710E-19 -3.189453E-01  0.000000E+00
  4.922030E-01 -2.319629E-02  5.000000E-01  4.971717E-01 -2.325693E-02  0.000000E+00  1.714745E-02  1.005917E-03  1.321609E-18 -2.892451E-01  0.000000E+00
  5.135860E-01 -2.187132E-02  5.000000E-01  5.187705E-01 -2.191858E-02  0.000000E+00  1.618537E-02  1.043397E-03 -4.841252E-19 -2.478283E-01  0.000000E+00
  5.348990E-01 -2.044180E-02  5.000000E-01  5.402987E-01 -2.047463E-02  0.000000E+00  1.545411E-02  1.067654E-03 -3.770993E-19 -2.035925E-01  0.000000E+00
  5.560760E-01 -1.893823E-02  5.000000E-01  5.616895E-01 -1.895589E-02  0.000000E+00  1.497491E-02  1.091506E-03  4.222616E-19 -1.648911E-01  0.000000E+00
  4.759900E-01  7.415214E-02  5.000000E-01  4.807950E-01  7.507420E-02  0.000000E+00  2.331190E-02 -9.119319E-04 -9.114274E-18 -8.063095E-01  0.000000E+00
  4.548480E-01  7.488738E-02  5.000000E-01  4.594396E-01  7.581687E-02  0.000000E+00  2.347078E-02 -7.160486E-04 -8.347326E-18 -7.874479E-01  0.000000E+00
  4.337860E-01  7.543992E-02  5.000000E-01  4.381650E-01  7.637499E-02  0.000000E+00  2.364589E-02 -5.176665E-04 -7.881191E-18 -7.684183E-01  0.000000E+00
  4.128620E-01  7.580777E-02  5.000000E-01  4.170298E-01  7.674654E-02  0.000000E+00  2.383867E-02 -3.053802E-04 -7.564207E-18 -7.481029E-01  0.000000E+00
  3.921340E-01  7.597571E-02  5.000000E-01  3.960925E-01  7.691618E-02  0.000000E+00  2.403554E-02 -6.833664E-05 -7.854028E-18 -7.253385E-01  0.000000E+00
  3.716590E-01  7.592748E-02  5.000000E-01  3.754108E-01  7.686746E-02  0.000000E+00  2.420593E-02  1.968546E-04 -8.059398E-18 -6.994998E-01  0.000000E+00
  3.514890E-01  7.564821E-02  5.000000E-01  3.550372E-01  7.658538E-02  0.000000E+00  2.431940E-02  4.890048E-04 -8.069148E-18 -6.704569E-01  0.000000E+00
  3.316730E-01  7.512702E-02  5.000000E-01  3.350212E-01  7.605893E-02  0.000000E+00  2.435071E-02  8.005929E-04 -6.738993E-18 -6.388358E-01  0.000000E+00
  3.122580E-01  7.436112E-02  5.000000E-01  3.154102E-01  7.528530E-02  0.000000E+00  2.427548E-02  1.110166E-03 -5.248586E-18 -6.065279E-01  0.000000E+00
  2.932850E-01  7.337270E-02  5.000000E-01  2.962457E-01  7.428689E-02  0.000000E+00  2.408950E-02  1.395765E-03 -4.822900E-18 -5.757152E-01  0.000000E+00
  2.747930E-01  7.219145E-02  5.000000E-01  2.775670E-01  7.309372E-02  0.000000E+00  2.382111E-02  1.652521E-03 -3.725144E-18 -5.475014E-01  0.000000E+00
  2.568150E-01  7.084414E-02  5.000000E-01  2.594075E-01  7.173281E-02  0.000000E+00  2.350829E-02  1.885467E-03 -2.525238E-18 -5.221824E-01  0.000000E+00
  2.393810E-01  6.935345E-02  5.000000E-01  2.417975E-01  7.022707E-02  0.000000E+00  2.318512E-02  2.102502E-03 -2.943613E-18 -4.999763E-01  0.000000E+00
  2.225160E-01  6.773787E-02  5.000000E-01  2.247623E-01  6.859518E-02  0.000000E+00  2.287895E-02  2.309435E-03 -2.100034E-18 -4.821083E-01  0.000000E+00
  2.062420E-01  6.601169E-02  5.000000E-01  2.083240E-01  6.685158E-02  0.000000E+00  2.259258E-02  2.477901E-03 -7.095642E-19 -4.734235E-01  0.000000E+00
  1.905750E-01  6.423152E-02  5.000000E-01  1.924988E-01  6.505344E-02  0.000000E+00  2.234672E-02  2.551046E-03 -2.088829E-18 -4.811993E-01  0.000000E+00
  1.755290E-01  6.250084E-02  5.000000E-01  1.773010E-01  6.330529E-02  0.000000E+00  2.228836E-02  2.548533E-03 -1.233072E-18 -5.060646E-01  0.000000E+00
  1.611160E-01  6.086225E-02  5.000000E-01  1.627425E-01  6.165016E-02  0.000000E+00  2.259922E-02  2.551862E-03  5.946102E-19 -5.410238E-01  0.000000E+00
  1.473410E-01  5.931857E-02  5.000000E-01  1.488284E-01  6.009089E-02  0.000000E+00  2.331675E-02  2.609569E-03  4.982467E-19 -5.784144E-01  0.000000E+00
  1.342110E-01  5.785253E-02  5.000000E-01  1.355659E-01  5.861006E-02  0.000000E+00  2.432635E-02  2.736895E-03  4.387603E-19 -6.127242E-01  0.000000E+00
  1.217280E-01  5.643873E-02  5.000000E-01  1.229569E-01  5.718198E-02  0.000000E+00  2.545086E-02  2.933873E-03  2.687037E-18 -6.412892E-01  0.000000E+00
  1.098910E-01  5.505159E-02  5.000000E-01  1.110004E-01  5.578084E-02  0.000000E+00  2.655739E-02  3.206119E-03  5.497508E-18 -6.631102E-01  0.000000E+00
  9.869950E-02  5.366235E-02  5.000000E-01  9.969589E-02  5.437758E-02  0.000000E+00  2.759561E-02  3.568986E-03  7.052055E-18 -6.778228E-01  0.000000E+00
  8.814970E-02  5.224462E-02  5.000000E-01  8.903960E-02  5.294553E-02  0.000000E+00  2.857958E-02  4.048450E-03  9.949748E-18 -6.849646E-01  0.000000E+00
  8.814970E-02  5.224462E-02  5.000000E-01  8.903960E-02  5.294553E-02  0.000000E+00  2.857958E-02  4.048450E-03  9.949748E-18 -6.849646E-01  0.000000E+00
  7.823720E-02  5.077072E-02  5.000000E-01  7.902703E-02  5.145676E-02  0.000000E+00  2.954981E-02  4.687424E-03  1.457017E-17 -6.832455E-01  0.000000E+00
  6.895800E-02  4.920926E-02  5.000000E-01  6.965416E-02  4.987954E-02  0.000000E+00  3.051807E-02  5.527884E-03  1.937463E-17 -6.711606E-01  0.000000E+00
  6.030560E-02  4.753399E-02  5.000000E-01  6.091442E-02  4.818735E-02  0.000000E+00  3.146859E-02  6.624226E-03  2.144752E-17 -6.462421E-01  0.000000E+00
  5.227560E-02  4.571244E-02  5.000000E-01  5.280336E-02  4.634741E-02  0.000000E+00  3.234232E-02  8.037653E-03  2.070122E-17 -6.049759E-01  0.000000E+00
  4.486350E-02  4.371373E-02  5.000000E-01  4.531644E-02  4.432853E-02  0.000000E+00  3.299826E-02  9.789376E-03  1.626904E-17 -5.443311E-01  0.000000E+00
  3.806240E-02  4.151568E-02  5.000000E-01  3.844668E-02  4.210829E-02  0.000000E+00  3.325145E-02  1.187692E-02  7.845867E-18 -4.604277E-01  0.000000E+00
  3.186880E-02  3.909377E-02  5.000000E-01  3.219056E-02  3.966193E-02  0.000000E+00  3.285807E-02  1.420833E-02 -5.177227E-19 -3.500705E-01  0.000000E+00
  2.627530E-02  3.643836E-02  5.000000E-01  2.654059E-02  3.697972E-02  0.000000E+00  3.156388E-02  1.655802E-02 -3.574236E-18 -2.124831E-01  0.000000E+00
  2.127350E-02  3.355187E-02  5.000000E-01  2.148830E-02  3.406408E-02  0.000000E+00  2.924304E-02  1.865112E-02 -5.148682E-18 -4.771893E-02  0.000000E+00
  1.685790E-02  3.044143E-02  5.000000E-01  1.702813E-02  3.092225E-02  0.000000E+00  2.594414E-02  2.013074E-02 -1.008843E-17  1.386658E-01  0.000000E+00
  1.301460E-02  2.714218E-02  5.000000E-01  1.314603E-02  2.758969E-02  0.000000E+00  2.192537E-02  2.070636E-02 -1.771950E-17  3.370770E-01  0.000000E+00
  9.730790E-03  2.369947E-02  5.000000E-01  9.829072E-03  2.411223E-02  0.000000E+00  1.758703E-02  2.030808E-02 -2.501113E-17  5.384551E-01  0.000000E+00
  6.996180E-03  2.016826E-02  5.000000E-01  7.066857E-03  2.054537E-02  0.000000E+00  1.333586E-02  1.891616E-02 -2.766573E-17  7.277833E-01  0.000000E+00
  4.781010E-03  1.664002E-02  5.000000E-01  4.829325E-03  1.698151E-02  0.000000E+00  9.485550E-03  1.662491E-02 -2.197385E-17  8.914626E-01  0.000000E+00
  3.054950E-03  1.321026E-02  5.000000E-01  3.085841E-03  1.351713E-02  0.000000E+00  6.194854E-03  1.364984E-02 -1.600493E-17  1.024911E+00  0.000000E+00
  1.789910E-03  9.974127E-03  5.000000E-01  1.808031E-03  1.024833E-02  0.000000E+00  3.552593E-03  1.012092E-02 -1.749556E-17  1.123514E+00  0.000000E+00
  9.331870E-04  7.040693E-03  5.000000E-01  9.426596E-04  7.285287E-03  0.000000E+00  1.620932E-03  6.120061E-03 -1.991303E-17  1.183555E+00  0.000000E+00
  4.085430E-04  4.518460E-03  5.000000E-01  4.127195E-04  4.737592E-03  0.000000E+00  3.814145E-04  1.736662E-03 -2.258403E-17  1.207879E+00  0.000000E+00
  1.354760E-04  2.494706E-03  5.000000E-01  1.368960E-04  2.693409E-03  0.000000E+00 -2.394608E-04 -2.991960E-03 -2.936221E-17  1.204198E+00  0.000000E+00
  2.683130E-05  1.021576E-03  5.000000E-01  2.715456E-05  1.205409E-03  0.000000E+00 -3.439928E-04 -8.059178E-03 -3.877746E-17  1.180858E+00  0.000000E+00
  1.320070E-06  1.277077E-04  5.000000E-01  1.385807E-06  3.025170E-04  0.000000E+00 -2.077096E-04 -1.298372E-02 -4.196187E-17  1.140508E+00  0.000000E+00
 -5.188750E-08 -1.717860E-04  5.000000E-01  0.000000E+00  0.000000E+00  0.000000E+00 -4.372609E-05 -1.610910E-02 -2.744495E-17  1.105547E+00  0.000000E+00