 Title = "ADflow Slice Data"
Variables =  "CoordinateX"  "CoordinateY"  "CoordinateZ"  "XoC"  "YoC"  "ZoC" "VelocityX" "VelocityY" "VelocityZ" "CoefPressure" "Mach" 
Zone T= "Slice_0001 None Absolute Regular z = 0.50000000"
 Nodes =          192  Elements=          184  ZONETYPE=FELINESEG
 DATAPACKING=POINT
  5.560760E-01 -1.897407E-02  5.000000E-01  5.616894E-01 -1.898569E-02  0.000000E+00  1.447924E-02  1.072641E-03 -1.853721E-18 -1.594520E-01  0.000000E+00
  5.770550E-01 -1.739881E-02  5.000000E-01  5.828802E-01 -1.739453E-02  0.000000E+00  1.410722E-02  1.083366E-03 -1.603699E-18 -1.268142E-01  0.000000E+00
  5.977760E-01 -1.577694E-02  5.000000E-01  6.038104E-01 -1.575628E-02  0.000000E+00  1.382136E-02  1.113008E-03  5.391988E-19 -1.036979E-01  0.000000E+00
  6.181820E-01 -1.408876E-02  5.000000E-01  6.244224E-01 -1.405106E-02  0.000000E+00  1.350458E-02  1.155668E-03  2.226777E-19 -8.600177E-02  0.000000E+00
  6.382180E-01 -1.231434E-02  5.000000E-01  6.446606E-01 -1.225873E-02  0.000000E+00  1.307545E-02  1.199086E-03  3.299032E-19 -6.777413E-02  0.000000E+00
  6.578350E-01 -1.044751E-02  5.000000E-01  6.644757E-01 -1.037305E-02  0.000000E+00  1.250021E-02  1.228912E-03  7.784456E-19 -4.440288E-02  0.000000E+00
  6.769910E-01 -8.498517E-03  5.000000E-01  6.838250E-01 -8.404389E-03  0.000000E+00  1.176690E-02  1.239216E-03  1.215240E-18 -1.503532E-02  0.000000E+00
  6.956490E-01 -6.462834E-03  5.000000E-01  7.026714E-01 -6.348156E-03  0.000000E+00  1.087104E-02  1.226586E-03  1.995657E-18  1.892908E-02  0.000000E+00
  7.137810E-01 -4.343406E-03  5.000000E-01  7.209864E-01 -4.207333E-03  0.000000E+00  9.822964E-03  1.181789E-03 -2.458641E-19  5.653155E-02  0.000000E+00
  7.313660E-01 -2.160022E-03  5.000000E-01  7.387489E-01 -2.001909E-03  0.000000E+00  8.648550E-03  1.100390E-03 -9.006203E-19  9.692273E-02  0.000000E+00
  7.483850E-01  6.583738E-05  5.000000E-01  7.559397E-01  2.464202E-04  0.000000E+00  7.395794E-03  9.890203E-04  7.922372E-19  1.388038E-01  0.000000E+00
  7.648220E-01  2.319806E-03  5.000000E-01  7.725426E-01  2.523141E-03  0.000000E+00  6.143982E-03  8.600660E-04  2.215757E-18  1.806114E-01  0.000000E+00
  7.806630E-01  4.589901E-03  5.000000E-01  7.885436E-01  4.816152E-03  0.000000E+00  5.007875E-03  7.204497E-04  2.703584E-18  2.217299E-01  0.000000E+00
  7.958970E-01  6.802006E-03  5.000000E-01  8.039313E-01  7.050588E-03  0.000000E+00  4.125497E-03  5.747495E-04  2.865451E-18  2.630127E-01  0.000000E+00
  8.105170E-01  8.742863E-03  5.000000E-01  8.186989E-01  9.011037E-03  0.000000E+00  3.586826E-03  4.408480E-04  1.198607E-18  3.006244E-01  0.000000E+00
  8.245160E-01  1.029575E-02  5.000000E-01  8.328392E-01  1.057960E-02  0.000000E+00  3.381647E-03  3.342261E-04 -8.249535E-19  3.279730E-01  0.000000E+00
  8.378940E-01  1.144329E-02  5.000000E-01  8.463523E-01  1.173872E-02  0.000000E+00  3.439474E-03  2.509079E-04 -8.650245E-20  3.444300E-01  0.000000E+00
  8.506490E-01  1.221923E-02  5.000000E-01  8.592360E-01  1.252250E-02  0.000000E+00  3.684950E-03  1.792853E-04  3.952967E-19  3.535233E-01  0.000000E+00
  8.627850E-01  1.267769E-02  5.000000E-01  8.714945E-01  1.298558E-02  0.000000E+00  4.058730E-03  1.092917E-04  2.209323E-19  3.582178E-01  0.000000E+00
  8.743060E-01  1.287646E-02  5.000000E-01  8.831318E-01  1.318637E-02  0.000000E+00  4.515104E-03  3.474037E-05 -1.122116E-18  3.597416E-01  0.000000E+00
  8.852170E-01  1.286692E-02  5.000000E-01  8.941530E-01  1.317672E-02  0.000000E+00  5.019060E-03 -4.723878E-05 -1.356719E-18  3.586632E-01  0.000000E+00
  8.955250E-01  1.269064E-02  5.000000E-01  9.045650E-01  1.299867E-02  0.000000E+00  5.546349E-03 -1.375263E-04 -9.567330E-19  3.554436E-01  0.000000E+00
  9.052400E-01  1.238178E-02  5.000000E-01  9.143781E-01  1.268668E-02  0.000000E+00  6.083547E-03 -2.366031E-04 -1.804760E-18  3.504559E-01  0.000000E+00
  9.143710E-01  1.196747E-02  5.000000E-01  9.236013E-01  1.226820E-02  0.000000E+00  6.628868E-03 -3.472984E-04 -2.410465E-18  3.441085E-01  0.000000E+00
  9.143710E-01  1.196747E-02  5.000000E-01  9.236013E-01  1.226820E-02  0.000000E+00  6.628868E-03 -3.472984E-04 -2.410465E-18  3.441085E-01  0.000000E+00
  9.229270E-01  1.146430E-02  5.000000E-01  9.322437E-01  1.175995E-02  0.000000E+00  7.191397E-03 -4.749264E-04 -1.184744E-18  3.366327E-01  0.000000E+00
  9.309180E-01  1.088331E-02  5.000000E-01  9.403153E-01  1.117309E-02  0.000000E+00  7.786859E-03 -6.246643E-04 -8.182853E-19  3.277966E-01  0.000000E+00
  9.383550E-01  1.023497E-02  5.000000E-01  9.478274E-01  1.051821E-02  0.000000E+00  8.434156E-03 -8.014794E-04 -6.812875E-19  3.171733E-01  0.000000E+00
  9.452490E-01  9.529876E-03  5.000000E-01  9.547910E-01  9.805995E-03  0.000000E+00  9.155029E-03 -1.012154E-03  3.738866E-19  3.044135E-01  0.000000E+00
  9.516100E-01  8.778222E-03  5.000000E-01  9.612162E-01  9.046753E-03  0.000000E+00  9.974265E-03 -1.265374E-03  1.133191E-20  2.891502E-01  0.000000E+00
  9.574470E-01  7.991200E-03  5.000000E-01  9.671121E-01  8.251787E-03  0.000000E+00  1.091806E-02 -1.570192E-03 -1.328209E-18  2.708175E-01  0.000000E+00
  9.627730E-01  7.181596E-03  5.000000E-01  9.724919E-01  7.434010E-03  0.000000E+00  1.201348E-02 -1.936365E-03 -1.710328E-18  2.487609E-01  0.000000E+00
  9.675950E-01  6.364260E-03  5.000000E-01  9.773626E-01  6.608423E-03  0.000000E+00  1.329106E-02 -2.373784E-03 -2.920778E-19  2.222899E-01  0.000000E+00
  9.719240E-01  5.555540E-03  5.000000E-01  9.817353E-01  5.791539E-03  0.000000E+00  1.479132E-02 -2.893234E-03  2.214961E-18  1.906015E-01  0.000000E+00
  9.757700E-01  4.772928E-03  5.000000E-01  9.856201E-01  5.001027E-03  0.000000E+00  1.657803E-02 -3.511766E-03  5.525270E-18  1.528871E-01  0.000000E+00
  9.791410E-01  4.033868E-03  5.000000E-01  9.890251E-01  4.254507E-03  0.000000E+00  1.874970E-02 -4.255474E-03  3.847500E-18  1.082764E-01  0.000000E+00
  9.820450E-01  3.355026E-03  5.000000E-01  9.919584E-01  3.568812E-03  0.000000E+00  2.141939E-02 -5.155478E-03 -2.649287E-17  5.547350E-02  0.000000E+00
  9.844890E-01  2.751785E-03  5.000000E-01  9.944271E-01  2.959482E-03  0.000000E+00  2.463737E-02 -6.233030E-03 -1.174403E-16 -7.113519E-03  0.000000E+00
  9.864800E-01  2.237941E-03  5.000000E-01  9.964382E-01  2.440450E-03  0.000000E+00  2.830405E-02 -7.434566E-03 -2.366922E-16 -7.974946E-02  0.000000E+00
  9.880230E-01  1.825593E-03  5.000000E-01  9.979968E-01  2.023940E-03  0.000000E+00  3.185169E-02 -8.541910E-03 -7.256683E-17 -1.693885E-01  0.000000E+00
  9.891220E-01  1.524262E-03  5.000000E-01  9.991069E-01  1.719567E-03  0.000000E+00  3.494979E-02 -9.756934E-03  1.253222E-15 -2.767193E-01  0.000000E+00
  9.897810E-01  1.340669E-03  5.000000E-01  9.997725E-01  1.534121E-03  0.000000E+00  5.096888E-02 -1.242410E-02  4.704773E-15 -2.917655E-01  0.000000E+00
  9.900000E-01  1.279042E-03  5.000000E-01  9.999937E-01  1.471872E-03  0.000000E+00  3.520863E-02 -2.345612E-03  1.228537E-14 -6.618066E-01  0.000000E+00
  9.900000E-01  1.688598E-03  5.000000E-01  9.999937E-01  1.885562E-03  0.000000E+00  2.023247E-03 -7.757259E-03  3.571927E-14 -9.578616E-01  0.000000E+00
  9.900000E-01  2.098153E-03  5.000000E-01  9.999937E-01  2.299252E-03  0.000000E+00 -5.270843E-04 -2.156264E-02  6.897348E-14 -8.022639E-01  0.000000E+00
  9.900000E-01  2.507709E-03  5.000000E-01  9.999937E-01  2.712941E-03  0.000000E+00 -1.376031E-04 -1.302010E-02  9.487063E-14 -7.764050E-01  0.000000E+00
  9.900000E-01  2.917249E-03  5.000000E-01  9.999937E-01  3.126616E-03  0.000000E+00  3.203443E-04 -8.041881E-03  1.130292E-13 -8.081693E-01  0.000000E+00
  9.900000E-01  3.326805E-03  5.000000E-01  9.999937E-01  3.540306E-03  0.000000E+00  4.577093E-03 -6.797898E-03  1.265443E-13 -7.727076E-01  0.000000E+00
  9.900000E-01  3.326805E-03  5.000000E-01  9.999937E-01  3.540306E-03  0.000000E+00  4.577093E-03 -6.797898E-03  1.265443E-13 -7.727076E-01  0.000000E+00
  9.897980E-01  3.432614E-03  5.000000E-01  9.997897E-01  3.647183E-03  0.000000E+00  5.697210E-03 -3.527578E-03  1.192235E-13 -7.234765E-01  0.000000E+00
  9.891900E-01  3.750034E-03  5.000000E-01  9.991756E-01  3.967808E-03  0.000000E+00  1.481359E-03 -7.072801E-04  8.527358E-14 -7.313146E-01  0.000000E+00
  9.881780E-01  4.278298E-03  5.000000E-01  9.981533E-01  4.501404E-03  0.000000E+00 -8.804975E-04  4.625361E-04  4.758949E-14 -7.371172E-01  0.000000E+00
  9.867570E-01  5.016034E-03  5.000000E-01  9.967180E-01  5.246587E-03  0.000000E+00 -2.298816E-03  1.178003E-03  2.003560E-14 -7.425966E-01  0.000000E+00
  9.849260E-01  5.959571E-03  5.000000E-01  9.948685E-01  6.199649E-03  0.000000E+00 -3.013392E-03  1.542356E-03  5.261287E-15 -7.517288E-01  0.000000E+00
  9.826810E-01  7.102227E-03  5.000000E-01  9.926009E-01  7.353840E-03  0.000000E+00 -3.123247E-03  1.578780E-03 -3.762561E-16 -7.610332E-01  0.000000E+00
  9.800160E-01  8.433997E-03  5.000000E-01  9.899089E-01  8.699053E-03  0.000000E+00 -2.876664E-03  1.422877E-03 -1.417365E-15 -7.672592E-01  0.000000E+00
  9.769240E-01  9.940443E-03  5.000000E-01  9.867857E-01  1.022071E-02  0.000000E+00 -2.558378E-03  1.226989E-03 -9.450781E-16 -7.700571E-01  0.000000E+00
  9.733970E-01  1.159993E-02  5.000000E-01  9.832231E-01  1.189694E-02  0.000000E+00 -2.369163E-03  1.088837E-03 -3.744783E-16 -7.709687E-01  0.000000E+00
  9.694240E-01  1.338531E-02  5.000000E-01  9.792100E-01  1.370035E-02  0.000000E+00 -2.391427E-03  1.042647E-03 -7.118110E-17 -7.719937E-01  0.000000E+00
  9.649940E-01  1.526900E-02  5.000000E-01  9.747353E-01  1.560306E-02  0.000000E+00 -2.627332E-03  1.086383E-03  2.247327E-17 -7.737344E-01  0.000000E+00
  9.600960E-01  1.722974E-02  5.000000E-01  9.697879E-01  1.758359E-02  0.000000E+00 -3.072618E-03  1.201383E-03  2.745009E-17 -7.745171E-01  0.000000E+00
  9.547180E-01  1.924603E-02  5.000000E-01  9.643556E-01  1.962023E-02  0.000000E+00 -3.678192E-03  1.333359E-03  1.351474E-17 -7.769792E-01  0.000000E+00
  9.488510E-01  2.129684E-02  5.000000E-01  9.584293E-01  2.169174E-02  0.000000E+00 -4.087891E-03  1.351681E-03  4.073025E-18 -7.992400E-01  0.000000E+00
  9.424820E-01  2.336501E-02  5.000000E-01  9.519961E-01  2.378079E-02  0.000000E+00 -3.361814E-03  1.022884E-03  2.121468E-18 -8.670372E-01  0.000000E+00
  9.356020E-01  2.543774E-02  5.000000E-01  9.450466E-01  2.587445E-02  0.000000E+00 -1.427471E-04  6.238941E-05  6.209613E-18 -9.793828E-01  0.000000E+00
  9.282010E-01  2.750623E-02  5.000000E-01  9.375709E-01  2.796382E-02  0.000000E+00  6.264482E-03 -1.605423E-03  1.540115E-17 -1.093232E+00  0.000000E+00
  9.202710E-01  2.956227E-02  5.000000E-01  9.295608E-01  3.004061E-02  0.000000E+00  1.438881E-02 -3.504874E-03  2.814181E-17 -1.160760E+00  0.000000E+00
  9.118010E-01  3.159004E-02  5.000000E-01  9.210053E-01  3.208885E-02  0.000000E+00  2.099652E-02 -4.786998E-03  3.716133E-17 -1.171648E+00  0.000000E+00
  9.027810E-01  3.356937E-02  5.000000E-01  9.118943E-01  3.408816E-02  0.000000E+00  2.412994E-02 -5.059431E-03  3.749594E-17 -1.147142E+00  0.000000E+00
  8.932000E-01  3.547982E-02  5.000000E-01  9.022166E-01  3.601789E-02  0.000000E+00  2.451564E-02 -4.650264E-03  3.263787E-17 -1.109175E+00  0.000000E+00
  8.830490E-01  3.729794E-02  5.000000E-01  8.919631E-01  3.785436E-02  0.000000E+00  2.381019E-02 -4.023951E-03  2.772817E-17 -1.067428E+00  0.000000E+00
  8.723190E-01  3.899731E-02  5.000000E-01  8.811248E-01  3.957089E-02  0.000000E+00  2.302409E-02 -3.407744E-03  2.634166E-17 -1.023988E+00  0.000000E+00
  8.723190E-01  3.899731E-02  5.000000E-01  8.811248E-01  3.957089E-02  0.000000E+00  2.302409E-02 -3.407744E-03  2.634166E-17 -1.023988E+00  0.000000E+00
  8.610010E-01  4.055185E-02  5.000000E-01  8.696925E-01  4.114112E-02  0.000000E+00  2.237550E-02 -2.840234E-03  2.719714E-17 -9.789045E-01  0.000000E+00
  8.490890E-01  4.193779E-02  5.000000E-01  8.576603E-01  4.254106E-02  0.000000E+00  2.174098E-02 -2.308320E-03  2.877690E-17 -9.324410E-01  0.000000E+00
  8.365770E-01  4.313708E-02  5.000000E-01  8.450220E-01  4.375245E-02  0.000000E+00  2.098615E-02 -1.814792E-03  3.074882E-17 -8.861555E-01  0.000000E+00
  8.234620E-01  4.414603E-02  5.000000E-01  8.317746E-01  4.477159E-02  0.000000E+00  2.008007E-02 -1.389352E-03  3.227391E-17 -8.437384E-01  0.000000E+00
  8.097400E-01  4.498596E-02  5.000000E-01  8.179141E-01  4.562000E-02  0.000000E+00  1.908427E-02 -1.078694E-03  3.289051E-17 -8.115956E-01  0.000000E+00
  7.954150E-01  4.572201E-02  5.000000E-01  8.034445E-01  4.636347E-02  0.000000E+00  1.811487E-02 -9.347538E-04  3.040320E-17 -7.980014E-01  0.000000E+00
  7.804870E-01  4.648479E-02  5.000000E-01  7.883658E-01  4.713396E-02  0.000000E+00  1.734645E-02 -9.863486E-04  2.553642E-17 -8.085178E-01  0.000000E+00
  7.649630E-01  4.745296E-02  5.000000E-01  7.726851E-01  4.811190E-02  0.000000E+00  1.702543E-02 -1.189347E-03  1.903019E-17 -8.388703E-01  0.000000E+00
  7.488530E-01  4.870163E-02  5.000000E-01  7.564124E-01  4.937317E-02  0.000000E+00  1.729210E-02 -1.477604E-03  9.687586E-18 -8.788874E-01  0.000000E+00
  7.321700E-01  5.025751E-02  5.000000E-01  7.395610E-01  5.094476E-02  0.000000E+00  1.803695E-02 -1.821731E-03 -2.338692E-18 -9.205521E-01  0.000000E+00
  7.149290E-01  5.212617E-02  5.000000E-01  7.221460E-01  5.283228E-02  0.000000E+00  1.902429E-02 -2.185947E-03 -1.523822E-17 -9.576465E-01  0.000000E+00
  6.971500E-01  5.427952E-02  5.000000E-01  7.041875E-01  5.500737E-02  0.000000E+00  2.004519E-02 -2.508901E-03 -2.476444E-17 -9.848320E-01  0.000000E+00
  6.788570E-01  5.664307E-02  5.000000E-01  6.857099E-01  5.739478E-02  0.000000E+00  2.098725E-02 -2.715362E-03 -2.905322E-17 -9.977626E-01  0.000000E+00
  6.600760E-01  5.908356E-02  5.000000E-01  6.667393E-01  5.985990E-02  0.000000E+00  2.178727E-02 -2.750996E-03 -2.978355E-17 -9.949017E-01  0.000000E+00
  6.408370E-01  6.144693E-02  5.000000E-01  6.473061E-01  6.224713E-02  0.000000E+00  2.234500E-02 -2.639065E-03 -2.914915E-17 -9.803757E-01  0.000000E+00
  6.211780E-01  6.367390E-02  5.000000E-01  6.274486E-01  6.449658E-02  0.000000E+00  2.262707E-02 -2.446729E-03 -2.701781E-17 -9.602342E-01  0.000000E+00
  6.011430E-01  6.573599E-02  5.000000E-01  6.072114E-01  6.657949E-02  0.000000E+00  2.273454E-02 -2.217698E-03 -2.325709E-17 -9.377557E-01  0.000000E+00
  5.807790E-01  6.761230E-02  5.000000E-01  5.866418E-01  6.847474E-02  0.000000E+00  2.277667E-02 -1.978546E-03 -1.880199E-17 -9.146558E-01  0.000000E+00
  5.601410E-01  6.929577E-02  5.000000E-01  5.657955E-01  7.017520E-02  0.000000E+00  2.281623E-02 -1.744250E-03 -1.512644E-17 -8.918822E-01  0.000000E+00
  5.392850E-01  7.078351E-02  5.000000E-01  5.447289E-01  7.167796E-02  0.000000E+00  2.287900E-02 -1.519162E-03 -1.259286E-17 -8.698288E-01  0.000000E+00
  5.182680E-01  7.207553E-02  5.000000E-01  5.234998E-01  7.298302E-02  0.000000E+00  2.296612E-02 -1.306011E-03 -1.149092E-17 -8.488845E-01  0.000000E+00
  4.971500E-01  7.317918E-02  5.000000E-01  5.021686E-01  7.409782E-02  0.000000E+00  2.307628E-02 -1.106150E-03 -1.072877E-17 -8.293379E-01  0.000000E+00
  4.759900E-01  7.410216E-02  5.000000E-01  4.807950E-01  7.503011E-02  0.000000E+00  2.321343E-02 -9.180442E-04 -9.434414E-18 -8.112132E-01  0.000000E+00
  2.733630E-06 -5.101049E-04  5.000000E-01  2.813636E-06 -3.353359E-04  0.000000E+00  4.250765E-04 -1.769727E-02 -2.042168E-17  1.098281E+00  0.000000E+00
  4.455870E-05 -1.505501E-03  5.000000E-01  4.506091E-05 -1.340781E-03  0.000000E+00  2.062740E-03 -2.113708E-02 -2.553839E-18  1.068931E+00  0.000000E+00
  2.731490E-04 -3.125534E-03  5.000000E-01  2.759587E-04 -2.977166E-03  0.000000E+00  6.105558E-03 -2.422790E-02  4.225015E-18  9.516327E-01  0.000000E+00
  9.950900E-04 -5.188153E-03  5.000000E-01  1.005187E-03 -5.060607E-03  0.000000E+00  1.209022E-02 -2.504152E-02  5.636266E-18  7.457040E-01  0.000000E+00
  2.349870E-03 -7.370114E-03  5.000000E-01  2.373643E-03 -7.264594E-03  0.000000E+00  1.789487E-02 -2.437044E-02  1.089142E-17  5.340595E-01  0.000000E+00
  4.254460E-03 -9.598511E-03  5.000000E-01  4.297460E-03 -9.515487E-03  0.000000E+00  2.283819E-02 -2.342667E-02  4.545148E-18  3.536808E-01  0.000000E+00
  6.687140E-03 -1.180906E-02  5.000000E-01  6.754697E-03 -1.174835E-02  0.000000E+00  2.721606E-02 -2.210923E-02 -1.391838E-17  1.789749E-01  0.000000E+00
  9.634000E-03 -1.396009E-02  5.000000E-01  9.731304E-03 -1.392109E-02  0.000000E+00  3.081824E-02 -2.008323E-02 -2.788797E-17  3.571828E-04  0.000000E+00
  1.310530E-02 -1.597863E-02  5.000000E-01  1.323765E-02 -1.596001E-02  0.000000E+00  3.328536E-02 -1.724405E-02 -2.660839E-17 -1.770275E-01  0.000000E+00
  1.710810E-02 -1.780933E-02  5.000000E-01  1.728085E-02 -1.780919E-02  0.000000E+00  3.465246E-02 -1.420620E-02 -3.649004E-18 -3.291158E-01  0.000000E+00
  2.163760E-02 -1.945266E-02  5.000000E-01  2.185608E-02 -1.946911E-02  0.000000E+00  3.532901E-02 -1.152644E-02  3.189440E-17 -4.453640E-01  0.000000E+00
  2.669190E-02 -2.091912E-02  5.000000E-01  2.696140E-02 -2.095037E-02  0.000000E+00  3.549007E-02 -9.160054E-03  5.932231E-17 -5.381988E-01  0.000000E+00
  3.228310E-02 -2.218441E-02  5.000000E-01  3.260904E-02 -2.222844E-02  0.000000E+00  3.512031E-02 -6.995993E-03  7.287698E-17 -6.175416E-01  0.000000E+00
  3.842170E-02 -2.323779E-02  5.000000E-01  3.880961E-02 -2.329244E-02  0.000000E+00  3.433936E-02 -5.124634E-03  7.880363E-17 -6.826002E-01  0.000000E+00
  4.511710E-02 -2.408270E-02  5.000000E-01  4.557259E-02 -2.414589E-02  0.000000E+00  3.330558E-02 -3.592514E-03  7.793950E-17 -7.325218E-01  0.000000E+00
  5.237940E-02 -2.472815E-02  5.000000E-01  5.290820E-02 -2.479785E-02  0.000000E+00  3.216145E-02 -2.396122E-03  7.310389E-17 -7.672927E-01  0.000000E+00
  6.021800E-02 -2.519461E-02  5.000000E-01  6.082593E-02 -2.526902E-02  0.000000E+00  3.104094E-02 -1.516565E-03  6.605639E-17 -7.871393E-01  0.000000E+00
  6.864140E-02 -2.551307E-02  5.000000E-01  6.933436E-02 -2.559070E-02  0.000000E+00  3.000149E-02 -8.991644E-04  5.607938E-17 -7.938023E-01  0.000000E+00
  7.765990E-02 -2.571089E-02  5.000000E-01  7.844390E-02 -2.579051E-02  0.000000E+00  2.901588E-02 -4.854287E-04  4.651922E-17 -7.890857E-01  0.000000E+00
  8.728340E-02 -2.582036E-02  5.000000E-01  8.816455E-02 -2.590109E-02  0.000000E+00  2.798317E-02 -2.437310E-04  3.905880E-17 -7.732328E-01  0.000000E+00
  9.752070E-02 -2.588168E-02  5.000000E-01  9.850519E-02 -2.596302E-02  0.000000E+00  2.668037E-02 -1.450464E-04  3.269396E-17 -7.458454E-01  0.000000E+00
  1.083810E-01 -2.593540E-02  5.000000E-01  1.094751E-01 -2.601729E-02  0.000000E+00  2.484597E-02 -1.580089E-04  2.661394E-17 -7.055379E-01  0.000000E+00
  1.198710E-01 -2.602640E-02  5.000000E-01  1.210811E-01 -2.610920E-02  0.000000E+00  2.241907E-02 -2.502002E-04  2.078075E-17 -6.492266E-01  0.000000E+00
  1.319970E-01 -2.620367E-02  5.000000E-01  1.333295E-01 -2.628827E-02  0.000000E+00  1.974758E-02 -3.820682E-04  1.530791E-17 -5.737497E-01  0.000000E+00
  1.319970E-01 -2.620367E-02  5.000000E-01  1.333295E-01 -2.628827E-02  0.000000E+00  1.974758E-02 -3.820682E-04  1.530791E-17 -5.737497E-01  0.000000E+00
  1.447640E-01 -2.651283E-02  5.000000E-01  1.462254E-01 -2.660055E-02  0.000000E+00  1.754631E-02 -5.281607E-04  1.041860E-17 -4.797827E-01  0.000000E+00
  1.581750E-01 -2.699365E-02  5.000000E-01  1.597718E-01 -2.708622E-02  0.000000E+00  1.651897E-02 -6.929843E-04  6.201400E-18 -3.775968E-01  0.000000E+00
  1.722290E-01 -2.766567E-02  5.000000E-01  1.739676E-01 -2.776503E-02  0.000000E+00  1.691978E-02 -8.850878E-04  4.437384E-18 -2.893238E-01  0.000000E+00
  1.869240E-01 -2.850274E-02  5.000000E-01  1.888110E-01 -2.861054E-02  0.000000E+00  1.845249E-02 -1.054573E-03  3.464497E-18 -2.414665E-01  0.000000E+00
  2.022540E-01 -2.939823E-02  5.000000E-01  2.042957E-01 -2.951507E-02  0.000000E+00  2.048791E-02 -1.048943E-03  2.127431E-18 -2.513132E-01  0.000000E+00
  2.182110E-01 -3.012598E-02  5.000000E-01  2.204138E-01 -3.025017E-02  0.000000E+00  2.241521E-02 -7.633623E-04  1.858890E-18 -3.113673E-01  0.000000E+00
  2.347810E-01 -3.051196E-02  5.000000E-01  2.371511E-01 -3.064005E-02  0.000000E+00  2.384953E-02 -2.992503E-04  2.237377E-18 -3.911250E-01  0.000000E+00
  2.519470E-01 -3.054396E-02  5.000000E-01  2.544904E-01 -3.067237E-02  0.000000E+00  2.446544E-02  1.832258E-04  2.087851E-18 -4.625298E-01  0.000000E+00
  2.696890E-01 -3.024272E-02  5.000000E-01  2.724115E-01 -3.036809E-02  0.000000E+00  2.400459E-02  5.742362E-04  1.288824E-18 -5.103108E-01  0.000000E+00
  2.879810E-01 -2.966885E-02  5.000000E-01  2.908881E-01 -2.978842E-02  0.000000E+00  2.256605E-02  7.862605E-04  1.188657E-18 -5.248843E-01  0.000000E+00
  3.067920E-01 -2.893420E-02  5.000000E-01  3.098890E-01 -2.904636E-02  0.000000E+00  2.068980E-02  7.901938E-04  1.810983E-19 -5.015952E-01  0.000000E+00
  3.260870E-01 -2.820162E-02  5.000000E-01  3.293788E-01 -2.830639E-02  0.000000E+00  1.909035E-02  6.322528E-04  5.181925E-19 -4.455035E-01  0.000000E+00
  3.458260E-01 -2.764534E-02  5.000000E-01  3.493170E-01 -2.774449E-02  0.000000E+00  1.817402E-02  4.345015E-04  6.693159E-19 -3.771429E-01  0.000000E+00
  3.659650E-01 -2.726361E-02  5.000000E-01  3.696593E-01 -2.735890E-02  0.000000E+00  1.791720E-02  3.061758E-04 -1.008200E-18 -3.219165E-01  0.000000E+00
  3.864540E-01 -2.696450E-02  5.000000E-01  3.903552E-01 -2.705678E-02  0.000000E+00  1.809432E-02  2.743341E-04 -1.443494E-19 -2.926909E-01  0.000000E+00
  4.072410E-01 -2.664583E-02  5.000000E-01  4.113520E-01 -2.673490E-02  0.000000E+00  1.840505E-02  3.385366E-04  1.293430E-18 -2.880186E-01  0.000000E+00
  4.282690E-01 -2.619989E-02  5.000000E-01  4.325923E-01 -2.628445E-02  0.000000E+00  1.853836E-02  4.953708E-04  1.705270E-18 -2.977102E-01  0.000000E+00
  4.494800E-01 -2.551522E-02  5.000000E-01  4.540174E-01 -2.559287E-02  0.000000E+00  1.829106E-02  7.034353E-04 -3.583897E-19 -3.070938E-01  0.000000E+00
  4.708130E-01 -2.455174E-02  5.000000E-01  4.755657E-01 -2.461967E-02  0.000000E+00  1.765819E-02  8.851149E-04 -1.713948E-18 -3.026441E-01  0.000000E+00
  4.922030E-01 -2.336025E-02  5.000000E-01  4.971717E-01 -2.341615E-02  0.000000E+00  1.677892E-02  9.989805E-04 -3.866152E-19 -2.798505E-01  0.000000E+00
  5.135860E-01 -2.199737E-02  5.000000E-01  5.187705E-01 -2.203951E-02  0.000000E+00  1.584726E-02  1.054014E-03  1.839465E-18 -2.431958E-01  0.000000E+00
  5.348990E-01 -2.051708E-02  5.000000E-01  5.402987E-01 -2.054428E-02  0.000000E+00  1.504849E-02  1.070858E-03  1.694374E-18 -2.003750E-01  0.000000E+00
  5.560760E-01 -1.897407E-02  5.000000E-01  5.616894E-01 -1.898569E-02  0.000000E+00  1.447924E-02  1.072641E-03 -1.853721E-18 -1.594520E-01  0.000000E+00
  4.759900E-01  7.410216E-02  5.000000E-01  4.807950E-01  7.503011E-02  0.000000E+00  2.321343E-02 -9.180442E-04 -9.434414E-18 -8.112132E-01  0.000000E+00
  4.548480E-01  7.485189E-02  5.000000E-01  4.594396E-01  7.578741E-02  0.000000E+00  2.337808E-02 -7.404486E-04 -8.879083E-18 -7.943644E-01  0.000000E+00
  4.337860E-01  7.543846E-02  5.000000E-01  4.381650E-01  7.637990E-02  0.000000E+00  2.357402E-02 -5.651299E-04 -9.545929E-18 -7.778429E-01  0.000000E+00
  4.128620E-01  7.585976E-02  5.000000E-01  4.170297E-01  7.680546E-02  0.000000E+00  2.380839E-02 -3.689352E-04 -9.636096E-18 -7.594128E-01  0.000000E+00
  3.921340E-01  7.608683E-02  5.000000E-01  3.960925E-01  7.703482E-02  0.000000E+00  2.405662E-02 -1.321182E-04 -8.837620E-18 -7.369647E-01  0.000000E+00
  3.716590E-01  7.608924E-02  5.000000E-01  3.754108E-01  7.703725E-02  0.000000E+00  2.426253E-02  1.501295E-04 -8.080032E-18 -7.094997E-01  0.000000E+00
  3.514890E-01  7.583922E-02  5.000000E-01  3.550372E-01  7.678470E-02  0.000000E+00  2.437592E-02  4.753476E-04 -7.360189E-18 -6.768579E-01  0.000000E+00
  3.316730E-01  7.531425E-02  5.000000E-01  3.350212E-01  7.625444E-02  0.000000E+00  2.436077E-02  8.300913E-04 -6.498277E-18 -6.402288E-01  0.000000E+00
  3.122580E-01  7.450533E-02  5.000000E-01  3.154102E-01  7.543735E-02  0.000000E+00  2.418369E-02  1.173901E-03 -5.769734E-18 -6.032549E-01  0.000000E+00
  2.932850E-01  7.345071E-02  5.000000E-01  2.962457E-01  7.437208E-02  0.000000E+00  2.385134E-02  1.466786E-03 -4.572706E-18 -5.701147E-01  0.000000E+00
  2.747930E-01  7.220096E-02  5.000000E-01  2.775670E-01  7.310972E-02  0.000000E+00  2.343327E-02  1.704237E-03 -3.369356E-18 -5.427839E-01  0.000000E+00
  2.568150E-01  7.079871E-02  5.000000E-01  2.594075E-01  7.169332E-02  0.000000E+00  2.301088E-02  1.901063E-03 -3.090824E-18 -5.214926E-01  0.000000E+00
  2.393810E-01  6.927685E-02  5.000000E-01  2.417975E-01  7.015609E-02  0.000000E+00  2.264299E-02  2.075091E-03 -2.348732E-18 -5.058819E-01  0.000000E+00
  2.225160E-01  6.765908E-02  5.000000E-01  2.247623E-01  6.852199E-02  0.000000E+00  2.235968E-02  2.239108E-03 -2.427935E-18 -4.963227E-01  0.000000E+00
  2.062420E-01  6.596133E-02  5.000000E-01  2.083240E-01  6.680710E-02  0.000000E+00  2.215108E-02  2.369002E-03 -1.501497E-18 -4.966405E-01  0.000000E+00
  1.905750E-01  6.423963E-02  5.000000E-01  1.924988E-01  6.506803E-02  0.000000E+00  2.201944E-02  2.410619E-03 -2.389153E-19 -5.129461E-01  0.000000E+00
  1.755290E-01  6.259402E-02  5.000000E-01  1.773010E-01  6.340581E-02  0.000000E+00  2.209154E-02  2.382810E-03  1.422874E-19 -5.448529E-01  0.000000E+00
  1.611160E-01  6.106111E-02  5.000000E-01  1.627425E-01  6.185742E-02  0.000000E+00  2.252584E-02  2.362508E-03  3.309096E-19 -5.849554E-01  0.000000E+00
  1.473410E-01  5.963781E-02  5.000000E-01  1.488284E-01  6.041975E-02  0.000000E+00  2.333621E-02  2.393757E-03 -6.163451E-20 -6.258499E-01  0.000000E+00
  1.342110E-01  5.830199E-02  5.000000E-01  1.355659E-01  5.907045E-02  0.000000E+00  2.439541E-02  2.490085E-03  7.153565E-19 -6.626258E-01  0.000000E+00
  1.217280E-01  5.702452E-02  5.000000E-01  1.229569E-01  5.778008E-02  0.000000E+00  2.553172E-02  2.653037E-03  2.881013E-18 -6.931647E-01  0.000000E+00
  1.098910E-01  5.577680E-02  5.000000E-01  1.110004E-01  5.651976E-02  0.000000E+00  2.663054E-02  2.891521E-03  4.882445E-18 -7.167697E-01  0.000000E+00
  9.869950E-02  5.452733E-02  5.000000E-01  9.969589E-02  5.525768E-02  0.000000E+00  2.766182E-02  3.224493E-03  6.815179E-18 -7.331565E-01  0.000000E+00
  8.814970E-02  5.324698E-02  5.000000E-01  8.903959E-02  5.396441E-02  0.000000E+00  2.865376E-02  3.681436E-03  9.997792E-18 -7.418109E-01  0.000000E+00
  8.814970E-02  5.324698E-02  5.000000E-01  8.903959E-02  5.396441E-02  0.000000E+00  2.865376E-02  3.681436E-03  9.997792E-18 -7.418109E-01  0.000000E+00
  7.823720E-02  5.190517E-02  5.000000E-01  7.902703E-02  5.260905E-02  0.000000E+00  2.965396E-02  4.309244E-03  1.459697E-17 -7.413237E-01  0.000000E+00
  6.895800E-02  5.046718E-02  5.000000E-01  6.965416E-02  5.115655E-02  0.000000E+00  3.067586E-02  5.155424E-03  1.815892E-17 -7.300110E-01  0.000000E+00
  6.030560E-02  4.890328E-02  5.000000E-01  6.091441E-02  4.957686E-02  0.000000E+00  3.170339E-02  6.282382E-03  1.878441E-17 -7.051620E-01  0.000000E+00
  5.227560E-02  4.717707E-02  5.000000E-01  5.280336E-02  4.783322E-02  0.000000E+00  3.267357E-02  7.761662E-03  1.576688E-17 -6.629396E-01  0.000000E+00
  4.486350E-02  4.525358E-02  5.000000E-01  4.531643E-02  4.589032E-02  0.000000E+00  3.343142E-02  9.624058E-03  1.139908E-17 -5.999079E-01  0.000000E+00
  3.806240E-02  4.310678E-02  5.000000E-01  3.844668E-02  4.372185E-02  0.000000E+00  3.376744E-02  1.187144E-02  4.901541E-18 -5.117210E-01  0.000000E+00
  3.186880E-02  4.070835E-02  5.000000E-01  3.219056E-02  4.129921E-02  0.000000E+00  3.340153E-02  1.440067E-02 -4.860198E-18 -3.947794E-01  0.000000E+00
  2.627530E-02  3.804581E-02  5.000000E-01  2.654059E-02  3.860979E-02  0.000000E+00  3.204312E-02  1.695148E-02 -9.097552E-18 -2.482095E-01  0.000000E+00
  2.127350E-02  3.511985E-02  5.000000E-01  2.148830E-02  3.565429E-02  0.000000E+00  2.955671E-02  1.919885E-02 -9.154133E-18 -7.251583E-02  0.000000E+00
  1.685790E-02  3.193688E-02  5.000000E-01  1.702813E-02  3.243919E-02  0.000000E+00  2.601466E-02  2.073026E-02 -1.184715E-17  1.255075E-01  0.000000E+00
  1.301460E-02  2.853366E-02  5.000000E-01  1.314603E-02  2.900161E-02  0.000000E+00  2.172880E-02  2.122239E-02 -1.790190E-17  3.345043E-01  0.000000E+00
  9.730790E-03  2.495877E-02  5.000000E-01  9.829071E-03  2.539063E-02  0.000000E+00  1.716841E-02  2.062177E-02 -2.379065E-17  5.437832E-01  0.000000E+00
  6.996180E-03  2.127186E-02  5.000000E-01  7.066856E-03  2.166651E-02  0.000000E+00  1.279355E-02  1.896656E-02 -2.424800E-17  7.374004E-01  0.000000E+00
  4.781010E-03  1.757214E-02  5.000000E-01  4.829325E-03  1.792944E-02  0.000000E+00  8.931903E-03  1.642240E-02 -1.802878E-17  9.019074E-01  0.000000E+00
  3.054950E-03  1.396373E-02  5.000000E-01  3.085841E-03  1.428461E-02  0.000000E+00  5.721696E-03  1.326139E-02 -1.298760E-17  1.033603E+00  0.000000E+00
  1.789910E-03  1.055067E-02  5.000000E-01  1.808031E-03  1.083710E-02  0.000000E+00  3.214634E-03  9.650128E-03 -1.345824E-17  1.129131E+00  0.000000E+00
  9.331870E-04  7.451711E-03  5.000000E-01  9.426596E-04  7.706852E-03  0.000000E+00  1.428800E-03  5.684171E-03 -1.336678E-17  1.186118E+00  0.000000E+00
  4.085430E-04  4.784495E-03  5.000000E-01  4.127195E-04  5.012711E-03  0.000000E+00  3.098036E-04  1.443973E-03 -1.573354E-17  1.208222E+00  0.000000E+00
  1.354760E-04  2.643363E-03  5.000000E-01  1.368960E-04  2.849965E-03  0.000000E+00 -2.361879E-04 -3.049685E-03 -2.376700E-17  1.203406E+00  0.000000E+00
  2.683130E-05  1.084569E-03  5.000000E-01  2.715456E-05  1.275436E-03  0.000000E+00 -3.170938E-04 -7.812995E-03 -3.527738E-17  1.180117E+00  0.000000E+00
  1.320070E-06  1.387574E-04  5.000000E-01  1.385807E-06  3.200764E-04  0.000000E+00 -1.889100E-04 -1.243972E-02 -4.376145E-17  1.141056E+00  0.000000E+00
 -5.188750E-08 -1.781202E-04  5.000000E-01  0.000000E+00  0.000000E+00  0.000000E+00 -4.145853E-05 -1.543703E-02 -3.792266E-17  1.107253E+00  0.000000E+00