 Title = "ADflow Slice Data"
Variables =  "CoordinateX"  "CoordinateY"  "CoordinateZ"  "XoC"  "YoC"  "ZoC" "VelocityX" "VelocityY" "VelocityZ" "CoefPressure" "Mach" 
Zone T= "Slice_0001 None Absolute Regular z = 0.50000000"
 Nodes =          192  Elements=          184  ZONETYPE=FELINESEG
 DATAPACKING=POINT
  5.560760E-01 -1.893643E-02  5.000000E-01  5.616895E-01 -1.895404E-02  0.000000E+00  1.506960E-02  1.097503E-03  1.813474E-18 -1.686196E-01  0.000000E+00
  5.770550E-01 -1.737372E-02  5.000000E-01  5.828802E-01 -1.737555E-02  0.000000E+00  1.470679E-02  1.131743E-03  8.577749E-19 -1.386948E-01  0.000000E+00
  5.977760E-01 -1.573206E-02  5.000000E-01  6.038104E-01 -1.571732E-02  0.000000E+00  1.434994E-02  1.181232E-03 -6.882672E-19 -1.172045E-01  0.000000E+00
  6.181820E-01 -1.398861E-02  5.000000E-01  6.244224E-01 -1.395627E-02  0.000000E+00  1.386506E-02  1.236996E-03 -9.798605E-19 -9.853977E-02  0.000000E+00
  6.382180E-01 -1.211986E-02  5.000000E-01  6.446607E-01 -1.206865E-02  0.000000E+00  1.317662E-02  1.284505E-03 -1.207800E-18 -7.613405E-02  0.000000E+00
  6.578350E-01 -1.011555E-02  5.000000E-01  6.644757E-01 -1.004411E-02  0.000000E+00  1.228226E-02  1.307122E-03  2.908789E-20 -4.576696E-02  0.000000E+00
  6.769910E-01 -7.985684E-03  5.000000E-01  6.838251E-01 -7.892746E-03  0.000000E+00  1.122855E-02  1.294400E-03  1.137323E-18 -7.305746E-03  0.000000E+00
  6.956490E-01 -5.750264E-03  5.000000E-01  7.026714E-01 -5.634759E-03  0.000000E+00  1.007759E-02  1.242912E-03  1.672243E-19  3.650051E-02  0.000000E+00
  7.137810E-01 -3.443098E-03  5.000000E-01  7.209864E-01 -3.304304E-03  0.000000E+00  8.886834E-03  1.153797E-03  9.459227E-19  8.246098E-02  0.000000E+00
  7.313660E-01 -1.109216E-03  5.000000E-01  7.387490E-01 -9.468619E-04  0.000000E+00  7.699224E-03  1.035078E-03  1.197690E-18  1.279816E-01  0.000000E+00
  7.483850E-01  1.211556E-03  5.000000E-01  7.559398E-01  1.397337E-03  0.000000E+00  6.550154E-03  9.009779E-04 -1.582555E-19  1.713399E-01  0.000000E+00
  7.648220E-01  3.493400E-03  5.000000E-01  7.725427E-01  3.702216E-03  0.000000E+00  5.484822E-03  7.659192E-04  8.307811E-19  2.116183E-01  0.000000E+00
  7.806630E-01  5.718630E-03  5.000000E-01  7.885436E-01  5.949909E-03  0.000000E+00  4.572590E-03  6.356274E-04  1.335698E-18  2.491477E-01  0.000000E+00
  7.958970E-01  7.819155E-03  5.000000E-01  8.039314E-01  8.071638E-03  0.000000E+00  3.905648E-03  5.097908E-04  1.462282E-18  2.854849E-01  0.000000E+00
  8.105170E-01  9.611034E-03  5.000000E-01  8.186990E-01  9.881606E-03  0.000000E+00  3.546058E-03  3.961927E-04  5.214170E-19  3.179452E-01  0.000000E+00
  8.245160E-01  1.100232E-02  5.000000E-01  8.328393E-01  1.128693E-02  0.000000E+00  3.480699E-03  3.022081E-04 -1.703717E-22  3.411817E-01  0.000000E+00
  8.378940E-01  1.199093E-02  5.000000E-01  8.463523E-01  1.228553E-02  0.000000E+00  3.648533E-03  2.229106E-04  4.994343E-20  3.546917E-01  0.000000E+00
  8.506490E-01  1.261935E-02  5.000000E-01  8.592361E-01  1.292029E-02  0.000000E+00  3.983708E-03  1.490825E-04 -4.953548E-19  3.614399E-01  0.000000E+00
  8.627850E-01  1.294614E-02  5.000000E-01  8.714946E-01  1.325038E-02  0.000000E+00  4.432171E-03  7.345070E-05 -8.421313E-19  3.639529E-01  0.000000E+00
  8.743060E-01  1.303109E-02  5.000000E-01  8.831319E-01  1.333618E-02  0.000000E+00  4.950372E-03 -7.932169E-06 -9.562080E-19  3.633675E-01  0.000000E+00
  8.852170E-01  1.292597E-02  5.000000E-01  8.941530E-01  1.323001E-02  0.000000E+00  5.504081E-03 -9.648599E-05 -7.803959E-19  3.603182E-01  0.000000E+00
  8.955250E-01  1.267191E-02  5.000000E-01  9.045651E-01  1.297338E-02  0.000000E+00  6.069258E-03 -1.922268E-04  7.414103E-19  3.553269E-01  0.000000E+00
  9.052400E-01  1.230198E-02  5.000000E-01  9.143782E-01  1.259972E-02  0.000000E+00  6.632591E-03 -2.951345E-04  1.767992E-18  3.487996E-01  0.000000E+00
  9.143710E-01  1.184195E-02  5.000000E-01  9.236013E-01  1.213504E-02  0.000000E+00  7.192825E-03 -4.079873E-04  2.516495E-18  3.411670E-01  0.000000E+00
  9.143710E-01  1.184195E-02  5.000000E-01  9.236013E-01  1.213504E-02  0.000000E+00  7.192825E-03 -4.079873E-04  2.516495E-18  3.411670E-01  0.000000E+00
  9.229270E-01  1.130681E-02  5.000000E-01  9.322437E-01  1.159450E-02  0.000000E+00  7.760203E-03 -5.363133E-04  2.681607E-18  3.326683E-01  0.000000E+00
  9.309180E-01  1.070593E-02  5.000000E-01  9.403154E-01  1.098755E-02  0.000000E+00  8.352009E-03 -6.853900E-04  1.642561E-18  3.230525E-01  0.000000E+00
  9.383550E-01  1.004804E-02  5.000000E-01  9.478274E-01  1.032302E-02  0.000000E+00  8.988880E-03 -8.601652E-04  4.986995E-19  3.118574E-01  0.000000E+00
  9.452490E-01  9.342009E-03  5.000000E-01  9.547910E-01  9.609865E-03  0.000000E+00  9.694339E-03 -1.067406E-03 -1.102375E-18  2.987007E-01  0.000000E+00
  9.516100E-01  8.596365E-03  5.000000E-01  9.612162E-01  8.856693E-03  0.000000E+00  1.049490E-02 -1.315764E-03 -1.402399E-18  2.831849E-01  0.000000E+00
  9.574470E-01  7.820706E-03  5.000000E-01  9.671122E-01  8.073205E-03  0.000000E+00  1.141827E-02 -1.614151E-03 -1.366019E-18  2.647113E-01  0.000000E+00
  9.627730E-01  7.026354E-03  5.000000E-01  9.724919E-01  7.270834E-03  0.000000E+00  1.249267E-02 -1.972125E-03 -1.490406E-18  2.425944E-01  0.000000E+00
  9.675950E-01  6.226814E-03  5.000000E-01  9.773626E-01  6.463223E-03  0.000000E+00  1.374932E-02 -2.399289E-03 -3.926606E-18  2.161155E-01  0.000000E+00
  9.719240E-01  5.437253E-03  5.000000E-01  9.817353E-01  5.665692E-03  0.000000E+00  1.522883E-02 -2.905975E-03 -5.046691E-18  1.844471E-01  0.000000E+00
  9.757700E-01  4.674139E-03  5.000000E-01  9.856201E-01  4.894874E-03  0.000000E+00  1.699492E-02 -3.508670E-03  5.748292E-18  1.467584E-01  0.000000E+00
  9.791410E-01  3.954040E-03  5.000000E-01  9.890252E-01  4.167506E-03  0.000000E+00  1.914724E-02 -4.233007E-03  2.930300E-17  1.021486E-01  0.000000E+00
  9.820450E-01  3.292898E-03  5.000000E-01  9.919585E-01  3.499690E-03  0.000000E+00  2.180441E-02 -5.110555E-03  2.703529E-17  4.927282E-02  0.000000E+00
  9.844890E-01  2.705508E-03  5.000000E-01  9.944272E-01  2.906370E-03  0.000000E+00  2.503121E-02 -6.165829E-03 -1.257909E-16 -1.357833E-02  0.000000E+00
  9.864800E-01  2.205205E-03  5.000000E-01  9.964382E-01  2.401017E-03  0.000000E+00  2.875684E-02 -7.354394E-03 -5.611402E-16 -8.685866E-02  0.000000E+00
  9.880230E-01  1.803731E-03  5.000000E-01  9.979968E-01  1.995490E-03  0.000000E+00  3.246893E-02 -8.477868E-03 -8.407423E-16 -1.775495E-01  0.000000E+00
  9.891220E-01  1.510341E-03  5.000000E-01  9.991069E-01  1.699139E-03  0.000000E+00  3.594770E-02 -9.766782E-03  1.465128E-15 -2.864739E-01  0.000000E+00
  9.897810E-01  1.331589E-03  5.000000E-01  9.997726E-01  1.518582E-03  0.000000E+00  5.278038E-02 -1.249348E-02  1.059009E-14 -3.054553E-01  0.000000E+00
  9.900000E-01  1.271584E-03  5.000000E-01  9.999938E-01  1.457971E-03  0.000000E+00  3.650390E-02 -2.290137E-03  1.732028E-14 -6.804817E-01  0.000000E+00
  9.900000E-01  1.681090E-03  5.000000E-01  9.999938E-01  1.871611E-03  0.000000E+00  2.129975E-03 -7.784354E-03  3.564080E-14 -9.800629E-01  0.000000E+00
  9.900000E-01  2.090596E-03  5.000000E-01  9.999938E-01  2.285251E-03  0.000000E+00 -5.418008E-04 -2.192991E-02  6.960210E-14 -8.248588E-01  0.000000E+00
  9.900000E-01  2.500101E-03  5.000000E-01  9.999938E-01  2.698891E-03  0.000000E+00 -1.405857E-04 -1.347965E-02  9.623172E-14 -7.971952E-01  0.000000E+00
  9.900000E-01  2.909593E-03  5.000000E-01  9.999938E-01  3.112515E-03  0.000000E+00  3.205922E-04 -8.311141E-03  1.147592E-13 -8.272443E-01  0.000000E+00
  9.900000E-01  3.319099E-03  5.000000E-01  9.999938E-01  3.526155E-03  0.000000E+00  4.482247E-03 -6.769635E-03  1.281496E-13 -7.919508E-01  0.000000E+00
  9.900000E-01  3.319099E-03  5.000000E-01  9.999938E-01  3.526155E-03  0.000000E+00  4.482247E-03 -6.769635E-03  1.281496E-13 -7.919508E-01  0.000000E+00
  9.897980E-01  3.423364E-03  5.000000E-01  9.997897E-01  3.631473E-03  0.000000E+00  5.460325E-03 -3.357511E-03  1.201499E-13 -7.436500E-01  0.000000E+00
  9.891900E-01  3.736158E-03  5.000000E-01  9.991756E-01  3.947424E-03  0.000000E+00  1.149157E-03 -5.275982E-04  8.528591E-14 -7.516768E-01  0.000000E+00
  9.881780E-01  4.256792E-03  5.000000E-01  9.981534E-01  4.473315E-03  0.000000E+00 -1.247643E-03  6.444526E-04  4.687635E-14 -7.587040E-01  0.000000E+00
  9.867570E-01  4.983972E-03  5.000000E-01  9.967180E-01  5.207835E-03  0.000000E+00 -2.616790E-03  1.324010E-03  1.910128E-14 -7.655101E-01  0.000000E+00
  9.849260E-01  5.914181E-03  5.000000E-01  9.948686E-01  6.147434E-03  0.000000E+00 -3.231030E-03  1.631320E-03  4.547043E-15 -7.753052E-01  0.000000E+00
  9.826810E-01  7.040938E-03  5.000000E-01  9.926009E-01  7.285566E-03  0.000000E+00 -3.241462E-03  1.616398E-03 -7.229923E-16 -7.845110E-01  0.000000E+00
  9.800160E-01  8.354506E-03  5.000000E-01  9.899090E-01  8.612393E-03  0.000000E+00 -2.935350E-03  1.432405E-03 -1.493899E-15 -7.901581E-01  0.000000E+00
  9.769240E-01  9.840812E-03  5.000000E-01  9.867858E-01  1.011370E-02  0.000000E+00 -2.610119E-03  1.234652E-03 -9.125869E-16 -7.923646E-01  0.000000E+00
  9.733970E-01  1.147871E-02  5.000000E-01  9.832232E-01  1.176814E-02  0.000000E+00 -2.453501E-03  1.112016E-03 -3.332445E-16 -7.931185E-01  0.000000E+00
  9.694240E-01  1.324171E-02  5.000000E-01  9.792101E-01  1.354893E-02  0.000000E+00 -2.525297E-03  1.088771E-03 -4.900695E-17 -7.943539E-01  0.000000E+00
  9.649940E-01  1.510307E-02  5.000000E-01  9.747354E-01  1.542908E-02  0.000000E+00 -2.822424E-03  1.157959E-03  2.920772E-17 -7.957760E-01  0.000000E+00
  9.600960E-01  1.704258E-02  5.000000E-01  9.697879E-01  1.738817E-02  0.000000E+00 -3.337175E-03  1.290497E-03  2.687229E-17 -7.962504E-01  0.000000E+00
  9.547180E-01  1.904005E-02  5.000000E-01  9.643556E-01  1.940581E-02  0.000000E+00 -3.933138E-03  1.403226E-03  1.145942E-17 -8.036192E-01  0.000000E+00
  9.488510E-01  2.107607E-02  5.000000E-01  9.584294E-01  2.146238E-02  0.000000E+00 -4.037882E-03  1.319265E-03  3.356590E-18 -8.412803E-01  0.000000E+00
  9.424820E-01  2.313536E-02  5.000000E-01  9.519961E-01  2.354245E-02  0.000000E+00 -2.498140E-03  7.652295E-04  3.405411E-18 -9.280005E-01  0.000000E+00
  9.356020E-01  2.520737E-02  5.000000E-01  9.450467E-01  2.563538E-02  0.000000E+00  1.960335E-03 -5.223374E-04  1.048348E-17 -1.045154E+00  0.000000E+00
  9.282010E-01  2.728588E-02  5.000000E-01  9.375709E-01  2.773487E-02  0.000000E+00  9.300988E-03 -2.438821E-03  2.280204E-17 -1.143061E+00  0.000000E+00
  9.202710E-01  2.936571E-02  5.000000E-01  9.295609E-01  2.983570E-02  0.000000E+00  1.707879E-02 -4.265642E-03  3.503772E-17 -1.187568E+00  0.000000E+00
  9.118010E-01  3.143458E-02  5.000000E-01  9.210054E-01  3.192545E-02  0.000000E+00  2.226050E-02 -5.228762E-03  3.877649E-17 -1.184284E+00  0.000000E+00
  9.027810E-01  3.347633E-02  5.000000E-01  9.118943E-01  3.398781E-02  0.000000E+00  2.407692E-02 -5.247289E-03  3.290781E-17 -1.157216E+00  0.000000E+00
  8.932000E-01  3.547508E-02  5.000000E-01  9.022166E-01  3.600674E-02  0.000000E+00  2.388948E-02 -4.779595E-03  2.456926E-17 -1.123104E+00  0.000000E+00
  8.830490E-01  3.741238E-02  5.000000E-01  8.919631E-01  3.796360E-02  0.000000E+00  2.319650E-02 -4.222020E-03  1.772676E-17 -1.087570E+00  0.000000E+00
  8.723190E-01  3.926711E-02  5.000000E-01  8.811248E-01  3.983705E-02  0.000000E+00  2.265886E-02 -3.712785E-03  1.342702E-17 -1.051318E+00  0.000000E+00
  8.723190E-01  3.926711E-02  5.000000E-01  8.811248E-01  3.983705E-02  0.000000E+00  2.265886E-02 -3.712785E-03  1.342702E-17 -1.051318E+00  0.000000E+00
  8.610010E-01  4.101836E-02  5.000000E-01  8.696926E-01  4.160598E-02  0.000000E+00  2.230885E-02 -3.251143E-03  1.128511E-17 -1.014120E+00  0.000000E+00
  8.490890E-01  4.264665E-02  5.000000E-01  8.576603E-01  4.325070E-02  0.000000E+00  2.198667E-02 -2.811589E-03  9.847946E-18 -9.760479E-01  0.000000E+00
  8.365770E-01  4.413591E-02  5.000000E-01  8.450220E-01  4.475500E-02  0.000000E+00  2.157236E-02 -2.389515E-03  8.687549E-18 -9.380538E-01  0.000000E+00
  8.234620E-01  4.547956E-02  5.000000E-01  8.317746E-01  4.611221E-02  0.000000E+00  2.103650E-02 -2.004240E-03  9.175128E-18 -9.024054E-01  0.000000E+00
  8.097400E-01  4.668688E-02  5.000000E-01  8.179141E-01  4.733173E-02  0.000000E+00  2.041316E-02 -1.690384E-03  9.213429E-18 -8.729881E-01  0.000000E+00
  7.954150E-01  4.779508E-02  5.000000E-01  8.034445E-01  4.845111E-02  0.000000E+00  1.976850E-02 -1.489770E-03  8.850711E-18 -8.548343E-01  0.000000E+00
  7.804870E-01  4.888303E-02  5.000000E-01  7.883658E-01  4.955004E-02  0.000000E+00  1.920707E-02 -1.429909E-03  8.861324E-18 -8.514439E-01  0.000000E+00
  7.649630E-01  5.005979E-02  5.000000E-01  7.726851E-01  5.073868E-02  0.000000E+00  1.888963E-02 -1.482396E-03  6.437492E-18 -8.604287E-01  0.000000E+00
  7.488530E-01  5.136916E-02  5.000000E-01  7.564125E-01  5.206126E-02  0.000000E+00  1.891373E-02 -1.595257E-03  2.519673E-18 -8.760741E-01  0.000000E+00
  7.321700E-01  5.282813E-02  5.000000E-01  7.395611E-01  5.353496E-02  0.000000E+00  1.922234E-02 -1.743422E-03 -2.004299E-18 -8.943950E-01  0.000000E+00
  7.149290E-01  5.444664E-02  5.000000E-01  7.221460E-01  5.516981E-02  0.000000E+00  1.969341E-02 -1.908485E-03 -6.407394E-18 -9.125776E-01  0.000000E+00
  6.971500E-01  5.622185E-02  5.000000E-01  7.041876E-01  5.696294E-02  0.000000E+00  2.022568E-02 -2.065536E-03 -1.036018E-17 -9.280294E-01  0.000000E+00
  6.788570E-01  5.813130E-02  5.000000E-01  6.857099E-01  5.889167E-02  0.000000E+00  2.076646E-02 -2.183260E-03 -1.480689E-17 -9.381463E-01  0.000000E+00
  6.600760E-01  6.012222E-02  5.000000E-01  6.667393E-01  6.090269E-02  0.000000E+00  2.128481E-02 -2.234060E-03 -1.863359E-17 -9.411234E-01  0.000000E+00
  6.408370E-01  6.212333E-02  5.000000E-01  6.473061E-01  6.292400E-02  0.000000E+00  2.173255E-02 -2.215307E-03 -1.990427E-17 -9.374159E-01  0.000000E+00
  6.211780E-01  6.408656E-02  5.000000E-01  6.274486E-01  6.490704E-02  0.000000E+00  2.207858E-02 -2.141275E-03 -1.990231E-17 -9.287036E-01  0.000000E+00
  6.011430E-01  6.597236E-02  5.000000E-01  6.072114E-01  6.681188E-02  0.000000E+00  2.233986E-02 -2.023210E-03 -1.920986E-17 -9.161904E-01  0.000000E+00
  5.807790E-01  6.774450E-02  5.000000E-01  5.866418E-01  6.860191E-02  0.000000E+00  2.254611E-02 -1.872293E-03 -1.717989E-17 -9.008350E-01  0.000000E+00
  5.601410E-01  6.937672E-02  5.000000E-01  5.657955E-01  7.025060E-02  0.000000E+00  2.272308E-02 -1.697338E-03 -1.463258E-17 -8.833383E-01  0.000000E+00
  5.392850E-01  7.084399E-02  5.000000E-01  5.447290E-01  7.173269E-02  0.000000E+00  2.288497E-02 -1.505165E-03 -1.259452E-17 -8.643351E-01  0.000000E+00
  5.182680E-01  7.213027E-02  5.000000E-01  5.234998E-01  7.303195E-02  0.000000E+00  2.303092E-02 -1.306705E-03 -1.094032E-17 -8.448037E-01  0.000000E+00
  4.971500E-01  7.323405E-02  5.000000E-01  5.021686E-01  7.414687E-02  0.000000E+00  2.316781E-02 -1.109127E-03 -9.756762E-18 -8.254280E-01  0.000000E+00
  4.759900E-01  7.415440E-02  5.000000E-01  4.807950E-01  7.507652E-02  0.000000E+00  2.331183E-02 -9.125496E-04 -9.477518E-18 -8.063281E-01  0.000000E+00
  2.733630E-06 -4.856949E-04  5.000000E-01  2.813636E-06 -3.170464E-04  0.000000E+00  4.683802E-04 -1.840214E-02 -4.227715E-19  1.096918E+00  0.000000E+00
  4.455870E-05 -1.426957E-03  5.000000E-01  4.506092E-05 -1.267810E-03  0.000000E+00  2.257612E-03 -2.190216E-02  2.629175E-17  1.067586E+00  0.000000E+00
  2.731490E-04 -2.959874E-03  5.000000E-01  2.759588E-04 -2.816201E-03  0.000000E+00  6.590197E-03 -2.485747E-02  4.176487E-17  9.467861E-01  0.000000E+00
  9.950900E-04 -4.915202E-03  5.000000E-01  1.005188E-03 -4.791268E-03  0.000000E+00  1.277359E-02 -2.521984E-02  4.226218E-17  7.369803E-01  0.000000E+00
  2.349870E-03 -6.990671E-03  5.000000E-01  2.373644E-03 -6.887688E-03  0.000000E+00  1.846570E-02 -2.402004E-02  3.833106E-17  5.277935E-01  0.000000E+00
  4.254460E-03 -9.119441E-03  5.000000E-01  4.297460E-03 -9.037947E-03  0.000000E+00  2.308394E-02 -2.270691E-02  2.574503E-17  3.563529E-01  0.000000E+00
  6.687140E-03 -1.124286E-02  5.000000E-01  6.754697E-03 -1.118280E-02  0.000000E+00  2.708725E-02 -2.122181E-02  5.393015E-18  1.935783E-01  0.000000E+00
  9.634000E-03 -1.332336E-02  5.000000E-01  9.731305E-03 -1.328431E-02  0.000000E+00  3.035365E-02 -1.922105E-02 -6.568999E-18  2.817472E-02  0.000000E+00
  1.310530E-02 -1.529330E-02  5.000000E-01  1.323765E-02 -1.527413E-02  0.000000E+00  3.258682E-02 -1.656690E-02 -1.247966E-18 -1.358211E-01  0.000000E+00
  1.710810E-02 -1.710094E-02  5.000000E-01  1.728085E-02 -1.710002E-02  0.000000E+00  3.385307E-02 -1.379138E-02  2.327038E-17 -2.759980E-01  0.000000E+00
  2.163760E-02 -1.874686E-02  5.000000E-01  2.185608E-02 -1.876256E-02  0.000000E+00  3.454272E-02 -1.137258E-02  5.607679E-17 -3.829838E-01  0.000000E+00
  2.669190E-02 -2.024075E-02  5.000000E-01  2.696140E-02 -2.027152E-02  0.000000E+00  3.480104E-02 -9.237655E-03  7.990326E-17 -4.692561E-01  0.000000E+00
  3.228310E-02 -2.155844E-02  5.000000E-01  3.260904E-02 -2.160251E-02  0.000000E+00  3.458656E-02 -7.263208E-03  8.932612E-17 -5.445031E-01  0.000000E+00
  3.842170E-02 -2.268786E-02  5.000000E-01  3.880961E-02 -2.274334E-02  0.000000E+00  3.398258E-02 -5.525718E-03  9.012014E-17 -6.076844E-01  0.000000E+00
  4.511710E-02 -2.362980E-02  5.000000E-01  4.557259E-02 -2.369478E-02  0.000000E+00  3.311756E-02 -4.071149E-03  8.535636E-17 -6.575410E-01  0.000000E+00
  5.237940E-02 -2.438958E-02  5.000000E-01  5.290821E-02 -2.446223E-02  0.000000E+00  3.211381E-02 -2.904228E-03  7.668089E-17 -6.936697E-01  0.000000E+00
  6.021800E-02 -2.498291E-02  5.000000E-01  6.082593E-02 -2.506156E-02  0.000000E+00  3.108978E-02 -2.017018E-03  6.606929E-17 -7.160230E-01  0.000000E+00
  6.864140E-02 -2.543508E-02  5.000000E-01  6.933437E-02 -2.551829E-02  0.000000E+00  3.009626E-02 -1.365116E-03  5.437789E-17 -7.262148E-01  0.000000E+00
  7.765990E-02 -2.576714E-02  5.000000E-01  7.844390E-02 -2.585370E-02  0.000000E+00  2.911879E-02 -8.975367E-04  4.443893E-17 -7.260534E-01  0.000000E+00
  8.728340E-02 -2.600427E-02  5.000000E-01  8.816455E-02 -2.609322E-02  0.000000E+00  2.810756E-02 -5.873106E-04  3.657257E-17 -7.159092E-01  0.000000E+00
  9.752070E-02 -2.617869E-02  5.000000E-01  9.850519E-02 -2.626941E-02  0.000000E+00  2.693853E-02 -4.081511E-04  2.991156E-17 -6.957330E-01  0.000000E+00
  1.083810E-01 -2.632243E-02  5.000000E-01  1.094751E-01 -2.641459E-02  0.000000E+00  2.545300E-02 -3.332884E-04  2.427161E-17 -6.648843E-01  0.000000E+00
  1.198710E-01 -2.647129E-02  5.000000E-01  1.210811E-01 -2.656496E-02  0.000000E+00  2.359737E-02 -3.411493E-04  1.914082E-17 -6.215760E-01  0.000000E+00
  1.319970E-01 -2.666523E-02  5.000000E-01  1.333295E-01 -2.676086E-02  0.000000E+00  2.155421E-02 -4.058378E-04  1.398093E-17 -5.640693E-01  0.000000E+00
  1.319970E-01 -2.666523E-02  5.000000E-01  1.333295E-01 -2.676086E-02  0.000000E+00  2.155421E-02 -4.058378E-04  1.398093E-17 -5.640693E-01  0.000000E+00
  1.447640E-01 -2.694179E-02  5.000000E-01  1.462254E-01 -2.704020E-02  0.000000E+00  1.975980E-02 -5.051840E-04  1.014560E-17 -4.929083E-01  0.000000E+00
  1.581750E-01 -2.733546E-02  5.000000E-01  1.597718E-01 -2.743785E-02  0.000000E+00  1.871180E-02 -6.296016E-04  6.857425E-18 -4.144402E-01  0.000000E+00
  1.722290E-01 -2.786687E-02  5.000000E-01  1.739676E-01 -2.797463E-02  0.000000E+00  1.866397E-02 -7.685525E-04  3.403175E-18 -3.429654E-01  0.000000E+00
  1.869240E-01 -2.852314E-02  5.000000E-01  1.888110E-01 -2.863752E-02  0.000000E+00  1.946917E-02 -8.780150E-04  3.075212E-18 -2.969228E-01  0.000000E+00
  2.022540E-01 -2.923215E-02  5.000000E-01  2.042957E-01 -2.935369E-02  0.000000E+00  2.066718E-02 -8.555743E-04  3.062157E-18 -2.900623E-01  0.000000E+00
  2.182110E-01 -2.983150E-02  5.000000E-01  2.204138E-01 -2.995908E-02  0.000000E+00  2.176948E-02 -6.432313E-04  1.442514E-18 -3.190371E-01  0.000000E+00
  2.347810E-01 -3.019411E-02  5.000000E-01  2.371511E-01 -3.032536E-02  0.000000E+00  2.248164E-02 -3.237242E-04  9.826741E-19 -3.627125E-01  0.000000E+00
  2.519470E-01 -3.030969E-02  5.000000E-01  2.544904E-01 -3.044210E-02  0.000000E+00  2.263694E-02 -6.252434E-07  1.202881E-18 -4.004918E-01  0.000000E+00
  2.696890E-01 -3.018645E-02  5.000000E-01  2.724115E-01 -3.031762E-02  0.000000E+00  2.218228E-02  2.735964E-04  1.436724E-18 -4.214535E-01  0.000000E+00
  2.879810E-01 -2.985488E-02  5.000000E-01  2.908881E-01 -2.998270E-02  0.000000E+00  2.128544E-02  4.596470E-04  1.021771E-18 -4.208767E-01  0.000000E+00
  3.067920E-01 -2.937527E-02  5.000000E-01  3.098890E-01 -2.949825E-02  0.000000E+00  2.029520E-02  5.381979E-04  3.548496E-19 -3.996435E-01  0.000000E+00
  3.260870E-01 -2.883759E-02  5.000000E-01  3.293788E-01 -2.895514E-02  0.000000E+00  1.956675E-02  5.199032E-04 -1.030774E-21 -3.648555E-01  0.000000E+00
  3.458260E-01 -2.833995E-02  5.000000E-01  3.493171E-01 -2.845249E-02  0.000000E+00  1.924940E-02  4.651574E-04 -2.150224E-18 -3.302121E-01  0.000000E+00
  3.659650E-01 -2.788223E-02  5.000000E-01  3.696594E-01 -2.799014E-02  0.000000E+00  1.926971E-02  4.421345E-04 -3.460888E-18 -3.084819E-01  0.000000E+00
  3.864540E-01 -2.741422E-02  5.000000E-01  3.903552E-01 -2.751740E-02  0.000000E+00  1.946218E-02  4.730566E-04 -5.990582E-19 -3.028935E-01  0.000000E+00
  4.072410E-01 -2.688172E-02  5.000000E-01  4.113520E-01 -2.697953E-02  0.000000E+00  1.962168E-02  5.561686E-04  1.587957E-18 -3.088794E-01  0.000000E+00
  4.282690E-01 -2.622988E-02  5.000000E-01  4.325923E-01 -2.632111E-02  0.000000E+00  1.953440E-02  6.831181E-04  3.829640E-19 -3.186203E-01  0.000000E+00
  4.494800E-01 -2.540218E-02  5.000000E-01  4.540174E-01 -2.548505E-02  0.000000E+00  1.907027E-02  8.258679E-04 -2.060874E-19 -3.229559E-01  0.000000E+00
  4.708130E-01 -2.437895E-02  5.000000E-01  4.755658E-01 -2.445150E-02  0.000000E+00  1.826464E-02  9.414260E-04 -3.107998E-19 -3.136263E-01  0.000000E+00
  4.922030E-01 -2.318976E-02  5.000000E-01  4.971717E-01 -2.325030E-02  0.000000E+00  1.728521E-02  1.012399E-03 -6.833219E-19 -2.879569E-01  0.000000E+00
  5.135860E-01 -2.186664E-02  5.000000E-01  5.187705E-01 -2.191383E-02  0.000000E+00  1.633872E-02  1.051590E-03 -1.389272E-18 -2.500243E-01  0.000000E+00
  5.348990E-01 -2.043873E-02  5.000000E-01  5.402987E-01 -2.047150E-02  0.000000E+00  1.558551E-02  1.075293E-03 -8.641263E-19 -2.075245E-01  0.000000E+00
  5.560760E-01 -1.893643E-02  5.000000E-01  5.616895E-01 -1.895404E-02  0.000000E+00  1.506960E-02  1.097503E-03  1.813474E-18 -1.686196E-01  0.000000E+00
  4.759900E-01  7.415440E-02  5.000000E-01  4.807950E-01  7.507652E-02  0.000000E+00  2.331183E-02 -9.125496E-04 -9.477518E-18 -8.063281E-01  0.000000E+00
  4.548480E-01  7.489021E-02  5.000000E-01  4.594396E-01  7.581975E-02  0.000000E+00  2.347056E-02 -7.166585E-04 -8.347219E-18 -7.874671E-01  0.000000E+00
  4.337860E-01  7.544330E-02  5.000000E-01  4.381650E-01  7.637843E-02  0.000000E+00  2.364559E-02 -5.182745E-04 -7.864649E-18 -7.684388E-01  0.000000E+00
  4.128620E-01  7.581169E-02  5.000000E-01  4.170298E-01  7.675053E-02  0.000000E+00  2.383836E-02 -3.060177E-04 -7.594477E-18 -7.481280E-01  0.000000E+00
  3.921340E-01  7.598021E-02  5.000000E-01  3.960925E-01  7.692075E-02  0.000000E+00  2.403530E-02 -6.905200E-05 -6.954741E-18 -7.253741E-01  0.000000E+00
  3.716590E-01  7.593262E-02  5.000000E-01  3.754108E-01  7.687269E-02  0.000000E+00  2.420590E-02  1.960141E-04 -6.883784E-18 -6.995526E-01  0.000000E+00
  3.514890E-01  7.565411E-02  5.000000E-01  3.550372E-01  7.659137E-02  0.000000E+00  2.431976E-02  4.880001E-04 -6.339452E-18 -6.705335E-01  0.000000E+00
  3.316730E-01  7.513383E-02  5.000000E-01  3.350212E-01  7.606583E-02  0.000000E+00  2.435164E-02  7.994196E-04 -5.602430E-18 -6.389385E-01  0.000000E+00
  3.122580E-01  7.436897E-02  5.000000E-01  3.154102E-01  7.529325E-02  0.000000E+00  2.427719E-02  1.108937E-03 -4.904766E-18 -6.066471E-01  0.000000E+00
  2.932850E-01  7.338158E-02  5.000000E-01  2.962457E-01  7.429590E-02  0.000000E+00  2.409209E-02  1.394694E-03 -4.450570E-18 -5.758281E-01  0.000000E+00
  2.747930E-01  7.220120E-02  5.000000E-01  2.775670E-01  7.310360E-02  0.000000E+00  2.382438E-02  1.651790E-03 -4.225667E-18 -5.475815E-01  0.000000E+00
  2.568150E-01  7.085449E-02  5.000000E-01  2.594075E-01  7.174329E-02  0.000000E+00  2.351170E-02  1.885164E-03 -3.350526E-18 -5.222061E-01  0.000000E+00
  2.393810E-01  6.936407E-02  5.000000E-01  2.417975E-01  7.023783E-02  0.000000E+00  2.318802E-02  2.102630E-03 -2.905476E-18 -4.999272E-01  0.000000E+00
  2.225160E-01  6.774843E-02  5.000000E-01  2.247623E-01  6.860588E-02  0.000000E+00  2.288072E-02  2.309934E-03 -3.137880E-18 -4.819801E-01  0.000000E+00
  2.062420E-01  6.602185E-02  5.000000E-01  2.083240E-01  6.686187E-02  0.000000E+00  2.259279E-02  2.478646E-03 -2.669782E-18 -4.732248E-01  0.000000E+00
  1.905750E-01  6.424105E-02  5.000000E-01  1.924988E-01  6.506309E-02  0.000000E+00  2.234514E-02  2.551837E-03 -1.889522E-18 -4.809576E-01  0.000000E+00
  1.755290E-01  6.250966E-02  5.000000E-01  1.773010E-01  6.331423E-02  0.000000E+00  2.228511E-02  2.549194E-03 -1.323919E-18 -5.058164E-01  0.000000E+00
  1.611160E-01  6.087041E-02  5.000000E-01  1.627425E-01  6.165843E-02  0.000000E+00  2.259482E-02  2.552330E-03  3.613389E-19 -5.408008E-01  0.000000E+00
  1.473410E-01  5.932619E-02  5.000000E-01  1.488284E-01  6.009862E-02  0.000000E+00  2.331200E-02  2.609848E-03  5.501197E-19 -5.782365E-01  0.000000E+00
  1.342110E-01  5.785975E-02  5.000000E-01  1.355659E-01  5.861738E-02  0.000000E+00  2.432197E-02  2.737000E-03  4.003627E-19 -6.125994E-01  0.000000E+00
  1.217280E-01  5.644571E-02  5.000000E-01  1.229569E-01  5.718907E-02  0.000000E+00  2.544730E-02  2.933805E-03  3.000570E-18 -6.412173E-01  0.000000E+00
  1.098910E-01  5.505848E-02  5.000000E-01  1.110004E-01  5.578782E-02  0.000000E+00  2.655475E-02  3.205862E-03  5.159011E-18 -6.630870E-01  0.000000E+00
  9.869950E-02  5.366927E-02  5.000000E-01  9.969589E-02  5.438460E-02  0.000000E+00  2.759378E-02  3.568526E-03  6.611347E-18 -6.778426E-01  0.000000E+00
  8.814970E-02  5.225168E-02  5.000000E-01  8.903960E-02  5.295269E-02  0.000000E+00  2.857837E-02  4.047791E-03  1.028318E-17 -6.850216E-01  0.000000E+00
  8.814970E-02  5.225168E-02  5.000000E-01  8.903960E-02  5.295269E-02  0.000000E+00  2.857837E-02  4.047791E-03  1.028318E-17 -6.850216E-01  0.000000E+00
  7.823720E-02  5.077799E-02  5.000000E-01  7.902703E-02  5.146413E-02  0.000000E+00  2.954910E-02  4.686599E-03  1.575512E-17 -6.833335E-01  0.000000E+00
  6.895800E-02  4.921678E-02  5.000000E-01  6.965416E-02  4.988716E-02  0.000000E+00  3.051781E-02  5.526963E-03  1.988464E-17 -6.712733E-01  0.000000E+00
  6.030560E-02  4.754178E-02  5.000000E-01  6.091442E-02  4.819525E-02  0.000000E+00  3.146881E-02  6.623323E-03  2.141396E-17 -6.463724E-01  0.000000E+00
  5.227560E-02  4.572047E-02  5.000000E-01  5.280336E-02  4.635555E-02  0.000000E+00  3.234302E-02  8.036930E-03  1.895713E-17 -6.051156E-01  0.000000E+00
  4.486350E-02  4.372195E-02  5.000000E-01  4.531643E-02  4.433686E-02  0.000000E+00  3.299940E-02  9.789030E-03  1.333204E-17 -5.444706E-01  0.000000E+00
  3.806240E-02  4.152401E-02  5.000000E-01  3.844668E-02  4.211673E-02  0.000000E+00  3.325288E-02  1.187715E-02  5.455555E-18 -4.605555E-01  0.000000E+00
  3.186880E-02  3.910210E-02  5.000000E-01  3.219056E-02  3.967037E-02  0.000000E+00  3.285949E-02  1.420929E-02 -2.141353E-18 -3.501737E-01  0.000000E+00
  2.627530E-02  3.644657E-02  5.000000E-01  2.654059E-02  3.698804E-02  0.000000E+00  3.156484E-02  1.655967E-02 -4.678644E-18 -2.125493E-01  0.000000E+00
  2.127350E-02  3.355981E-02  5.000000E-01  2.148830E-02  3.407214E-02  0.000000E+00  2.924308E-02  1.865322E-02 -5.366906E-18 -4.773822E-02  0.000000E+00
  1.685790E-02  3.044897E-02  5.000000E-01  1.702813E-02  3.092989E-02  0.000000E+00  2.594294E-02  2.013278E-02 -1.107363E-17  1.386968E-01  0.000000E+00
  1.301460E-02  2.714916E-02  5.000000E-01  1.314603E-02  2.759677E-02  0.000000E+00  2.192291E-02  2.070774E-02 -1.858401E-17  3.371528E-01  0.000000E+00
  9.730790E-03  2.370577E-02  5.000000E-01  9.829072E-03  2.411862E-02  0.000000E+00  1.758358E-02  2.030827E-02 -2.507788E-17  5.385616E-01  0.000000E+00
  6.996180E-03  2.017376E-02  5.000000E-01  7.066857E-03  2.055096E-02  0.000000E+00  1.333193E-02  1.891490E-02 -2.704282E-17  7.279017E-01  0.000000E+00
  4.781010E-03  1.664466E-02  5.000000E-01  4.829325E-03  1.698624E-02  0.000000E+00  9.481709E-03  1.662225E-02 -2.085273E-17  8.915745E-01  0.000000E+00
  3.054950E-03  1.321401E-02  5.000000E-01  3.085841E-03  1.352095E-02  0.000000E+00  6.191565E-03  1.364609E-02 -1.650625E-17  1.025001E+00  0.000000E+00
  1.789910E-03  9.976995E-03  5.000000E-01  1.808031E-03  1.025126E-02  0.000000E+00  3.550138E-03  1.011658E-02 -1.809568E-17  1.123576E+00  0.000000E+00
  9.331870E-04  7.042736E-03  5.000000E-01  9.426596E-04  7.287382E-03  0.000000E+00  1.619372E-03  6.115672E-03 -1.876233E-17  1.183586E+00  0.000000E+00
  4.085430E-04  4.519782E-03  5.000000E-01  4.127195E-04  4.738959E-03  0.000000E+00  3.806219E-04  1.732753E-03 -2.153483E-17  1.207884E+00  0.000000E+00
  1.354760E-04  2.495445E-03  5.000000E-01  1.368960E-04  2.694187E-03  0.000000E+00 -2.397218E-04 -2.994953E-03 -2.989458E-17  1.204183E+00  0.000000E+00
  2.683130E-05  1.021889E-03  5.000000E-01  2.715456E-05  1.205756E-03  0.000000E+00 -3.440014E-04 -8.060944E-03 -3.863004E-17  1.180830E+00  0.000000E+00
  1.320070E-06  1.277632E-04  5.000000E-01  1.385807E-06  3.026043E-04  0.000000E+00 -2.076666E-04 -1.298433E-02 -4.077393E-17  1.140476E+00  0.000000E+00
 -5.188750E-08 -1.718169E-04  5.000000E-01  0.000000E+00  0.000000E+00  0.000000E+00 -4.371480E-05 -1.610933E-02 -2.662477E-17  1.105515E+00  0.000000E+00