 Title = "ADflow Slice Data"
Variables =  "CoordinateX"  "CoordinateY"  "CoordinateZ"  "XoC"  "YoC"  "ZoC" "VelocityX" "VelocityY" "VelocityZ" "CoefPressure" "Mach" 
Zone T= "Slice_0001 None Absolute Regular z = 0.50000000"
 Nodes =          192  Elements=          184  ZONETYPE=FELINESEG
 DATAPACKING=POINT
  5.560760E-01 -1.893740E-02  5.000000E-01  5.616895E-01 -1.895506E-02  0.000000E+00  1.506834E-02  1.097790E-03 -3.446343E-17 -1.687373E-01  0.000000E+00
  5.770550E-01 -1.737423E-02  5.000000E-01  5.828802E-01 -1.737610E-02  0.000000E+00  1.470261E-02  1.131667E-03  9.328929E-18 -1.386515E-01  0.000000E+00
  5.977760E-01 -1.573237E-02  5.000000E-01  6.038104E-01 -1.571767E-02  0.000000E+00  1.434444E-02  1.180823E-03  4.252803E-17 -1.170295E-01  0.000000E+00
  6.181820E-01 -1.398904E-02  5.000000E-01  6.244224E-01 -1.395674E-02  0.000000E+00  1.385975E-02  1.236309E-03  6.849882E-17 -9.830919E-02  0.000000E+00
  6.382180E-01 -1.212082E-02  5.000000E-01  6.446607E-01 -1.206966E-02  0.000000E+00  1.317275E-02  1.283617E-03  8.793804E-17 -7.592054E-02  0.000000E+00
  6.578350E-01 -1.011752E-02  5.000000E-01  6.644757E-01 -1.004614E-02  0.000000E+00  1.228068E-02  1.306140E-03  9.945938E-17 -4.561239E-02  0.000000E+00
  6.769910E-01 -7.989228E-03  5.000000E-01  6.838251E-01 -7.896363E-03  0.000000E+00  1.122980E-02  1.293459E-03  9.944976E-17 -7.224294E-03  0.000000E+00
  6.956490E-01 -5.755923E-03  5.000000E-01  7.026714E-01 -5.640514E-03  0.000000E+00  1.008190E-02  1.242163E-03  8.260147E-17  3.650667E-02  0.000000E+00
  7.137810E-01 -3.451363E-03  5.000000E-01  7.209864E-01 -3.312690E-03  0.000000E+00  8.894233E-03  1.153368E-03  5.874785E-17  8.239154E-02  0.000000E+00
  7.313660E-01 -1.120507E-03  5.000000E-01  7.387490E-01 -9.583049E-04  0.000000E+00  7.709545E-03  1.035049E-03  4.133485E-17  1.278361E-01  0.000000E+00
  7.483850E-01  1.196889E-03  5.000000E-01  7.559398E-01  1.382485E-03  0.000000E+00  6.563055E-03  9.013792E-04  3.583975E-17  1.711209E-01  0.000000E+00
  7.648220E-01  3.475077E-03  5.000000E-01  7.725427E-01  3.683671E-03  0.000000E+00  5.499834E-03  7.667362E-04  3.280991E-17  2.113350E-01  0.000000E+00
  7.806630E-01  5.696433E-03  5.000000E-01  7.885436E-01  5.927450E-03  0.000000E+00  4.589238E-03  6.367916E-04  2.439987E-17  2.488138E-01  0.000000E+00
  7.958970E-01  7.793018E-03  5.000000E-01  8.039314E-01  8.045200E-03  0.000000E+00  3.923598E-03  5.111292E-04  2.013557E-17  2.851133E-01  0.000000E+00
  8.105170E-01  9.581277E-03  5.000000E-01  8.186990E-01  9.851511E-03  0.000000E+00  3.565149E-03  3.974759E-04  2.791967E-17  3.175441E-01  0.000000E+00
  8.245160E-01  1.096953E-02  5.000000E-01  8.328393E-01  1.125377E-02  0.000000E+00  3.500886E-03  3.032684E-04  3.708403E-17  3.407524E-01  0.000000E+00
  8.378940E-01  1.195582E-02  5.000000E-01  8.463523E-01  1.225002E-02  0.000000E+00  3.669817E-03  2.236711E-04  3.588823E-17  3.542281E-01  0.000000E+00
  8.506490E-01  1.258264E-02  5.000000E-01  8.592361E-01  1.288317E-02  0.000000E+00  4.006055E-03  1.495398E-04  3.144117E-17  3.609340E-01  0.000000E+00
  8.627850E-01  1.290856E-02  5.000000E-01  8.714946E-01  1.321238E-02  0.000000E+00  4.455449E-03  7.365330E-05  3.092961E-17  3.634012E-01  0.000000E+00
  8.743060E-01  1.299330E-02  5.000000E-01  8.831319E-01  1.329798E-02  0.000000E+00  4.974339E-03 -7.904309E-06  3.100799E-17  3.627719E-01  0.000000E+00
  8.852170E-01  1.288860E-02  5.000000E-01  8.941530E-01  1.319222E-02  0.000000E+00  5.528408E-03 -9.653775E-05  2.785193E-17  3.596841E-01  0.000000E+00
  8.955250E-01  1.263549E-02  5.000000E-01  9.045651E-01  1.293655E-02  0.000000E+00  6.093563E-03 -1.922567E-04  1.890970E-17  3.546617E-01  0.000000E+00
  9.052400E-01  1.226697E-02  5.000000E-01  9.143782E-01  1.256432E-02  0.000000E+00  6.656484E-03 -2.950408E-04  2.054830E-17  3.481119E-01  0.000000E+00
  9.143710E-01  1.180874E-02  5.000000E-01  9.236013E-01  1.210146E-02  0.000000E+00  7.215950E-03 -4.076787E-04 -1.551443E-17  3.404664E-01  0.000000E+00
  9.143710E-01  1.180874E-02  5.000000E-01  9.236013E-01  1.210146E-02  0.000000E+00  7.215950E-03 -4.076787E-04 -1.551443E-17  3.404664E-01  0.000000E+00
  9.229270E-01  1.127572E-02  5.000000E-01  9.322437E-01  1.156306E-02  0.000000E+00  7.782267E-03 -5.357121E-04 -5.275532E-17  3.319645E-01  0.000000E+00
  9.309180E-01  1.067719E-02  5.000000E-01  9.403154E-01  1.095849E-02  0.000000E+00  8.372801E-03 -6.844235E-04 -4.949871E-17  3.223541E-01  0.000000E+00
  9.383550E-01  1.002183E-02  5.000000E-01  9.478274E-01  1.029651E-02  0.000000E+00  9.008261E-03 -8.587582E-04 -1.633584E-17  3.111711E-01  0.000000E+00
  9.452490E-01  9.318426E-03  5.000000E-01  9.547910E-01  9.586006E-03  0.000000E+00  9.712237E-03 -1.065479E-03  1.660850E-16  2.980319E-01  0.000000E+00
  9.516100E-01  8.575443E-03  5.000000E-01  9.612163E-01  8.835523E-03  0.000000E+00  1.051130E-02 -1.313228E-03  6.980272E-16  2.825378E-01  0.000000E+00
  9.574470E-01  7.802422E-03  5.000000E-01  9.671122E-01  8.054699E-03  0.000000E+00  1.143320E-02 -1.610908E-03  1.887183E-15  2.640888E-01  0.000000E+00
  9.627730E-01  7.010635E-03  5.000000E-01  9.724919E-01  7.254918E-03  0.000000E+00  1.250620E-02 -1.968060E-03  4.008254E-15  2.419988E-01  0.000000E+00
  9.675950E-01  6.213541E-03  5.000000E-01  9.773626E-01  6.449778E-03  0.000000E+00  1.376151E-02 -2.394270E-03  6.859179E-15  2.155483E-01  0.000000E+00
  9.719240E-01  5.426270E-03  5.000000E-01  9.817353E-01  5.654560E-03  0.000000E+00  1.523976E-02 -2.899846E-03  9.146883E-15  1.839099E-01  0.000000E+00
  9.757700E-01  4.665260E-03  5.000000E-01  9.856201E-01  4.885867E-03  0.000000E+00  1.700465E-02 -3.501233E-03  9.012476E-15  1.462528E-01  0.000000E+00
  9.791410E-01  3.947056E-03  5.000000E-01  9.890252E-01  4.160414E-03  0.000000E+00  1.915576E-02 -4.223993E-03  8.636242E-15  1.016768E-01  0.000000E+00
  9.820450E-01  3.287581E-03  5.000000E-01  9.919585E-01  3.494281E-03  0.000000E+00  2.181153E-02 -5.099582E-03  2.362413E-14  4.883821E-02  0.000000E+00
  9.844890E-01  2.701618E-03  5.000000E-01  9.944272E-01  2.902403E-03  0.000000E+00  2.503635E-02 -6.152380E-03  8.423937E-14 -1.397003E-02  0.000000E+00
  9.864800E-01  2.202491E-03  5.000000E-01  9.964383E-01  2.398238E-03  0.000000E+00  2.875894E-02 -7.337861E-03  1.995722E-13 -8.719549E-02  0.000000E+00
  9.880230E-01  1.801937E-03  5.000000E-01  9.979968E-01  1.993641E-03  0.000000E+00  3.246654E-02 -8.457775E-03  2.851947E-13 -1.778123E-01  0.000000E+00
  9.891220E-01  1.509207E-03  5.000000E-01  9.991069E-01  1.697956E-03  0.000000E+00  3.593997E-02 -9.743230E-03  1.267455E-13 -2.866518E-01  0.000000E+00
  9.897810E-01  1.330852E-03  5.000000E-01  9.997726E-01  1.517800E-03  0.000000E+00  5.277828E-02 -1.246244E-02 -3.606305E-13 -3.054836E-01  0.000000E+00
  9.900000E-01  1.270979E-03  5.000000E-01  9.999938E-01  1.457322E-03  0.000000E+00  3.650488E-02 -2.271760E-03 -4.794497E-13 -6.802939E-01  0.000000E+00
  9.900000E-01  1.680481E-03  5.000000E-01  9.999938E-01  1.870959E-03  0.000000E+00  2.127865E-03 -7.784872E-03  3.401462E-14 -9.797284E-01  0.000000E+00
  9.900000E-01  2.089984E-03  5.000000E-01  9.999938E-01  2.284595E-03  0.000000E+00 -5.416376E-04 -2.193295E-02  3.799171E-13 -8.244989E-01  0.000000E+00
  9.900000E-01  2.499486E-03  5.000000E-01  9.999938E-01  2.698231E-03  0.000000E+00 -1.402046E-04 -1.348726E-02  3.632822E-13 -7.968321E-01  0.000000E+00
  9.900000E-01  2.908974E-03  5.000000E-01  9.999938E-01  3.111853E-03  0.000000E+00  3.202157E-04 -8.314646E-03  2.716388E-13 -8.268143E-01  0.000000E+00
  9.900000E-01  3.318477E-03  5.000000E-01  9.999938E-01  3.525489E-03  0.000000E+00  4.471686E-03 -6.759601E-03  1.851620E-13 -7.915267E-01  0.000000E+00
  9.900000E-01  3.318477E-03  5.000000E-01  9.999938E-01  3.525489E-03  0.000000E+00  4.471686E-03 -6.759601E-03  1.851620E-13 -7.915267E-01  0.000000E+00
  9.897980E-01  3.422616E-03  5.000000E-01  9.997897E-01  3.630680E-03  0.000000E+00  5.440451E-03 -3.343184E-03  1.329619E-13 -7.432833E-01  0.000000E+00
  9.891900E-01  3.735031E-03  5.000000E-01  9.991756E-01  3.946248E-03  0.000000E+00  1.129744E-03 -5.170627E-04  9.882593E-14 -7.513387E-01  0.000000E+00
  9.881780E-01  4.255034E-03  5.000000E-01  9.981534E-01  4.471500E-03  0.000000E+00 -1.264601E-03  6.523845E-04  6.067344E-14 -7.584276E-01  0.000000E+00
  9.867570E-01  4.981323E-03  5.000000E-01  9.967180E-01  5.205122E-03  0.000000E+00 -2.628915E-03  1.328590E-03  3.011204E-14 -7.652844E-01  0.000000E+00
  9.849260E-01  5.910383E-03  5.000000E-01  9.948686E-01  6.143560E-03  0.000000E+00 -3.237660E-03  1.632655E-03  1.228056E-14 -7.750954E-01  0.000000E+00
  9.826810E-01  7.035725E-03  5.000000E-01  9.926009E-01  7.280262E-03  0.000000E+00 -3.243808E-03  1.615532E-03  4.086126E-15 -7.842869E-01  0.000000E+00
  9.800160E-01  8.347607E-03  5.000000E-01  9.899090E-01  8.605387E-03  0.000000E+00 -2.935686E-03  1.430709E-03  1.147738E-15 -7.899041E-01  0.000000E+00
  9.769240E-01  9.831952E-03  5.000000E-01  9.867858E-01  1.010472E-02  0.000000E+00 -2.610729E-03  1.233251E-03  3.781411E-16 -7.920846E-01  0.000000E+00
  9.733970E-01  1.146761E-02  5.000000E-01  9.832232E-01  1.175689E-02  0.000000E+00 -2.455817E-03  1.111470E-03  2.192714E-16 -7.928324E-01  0.000000E+00
  9.694240E-01  1.322809E-02  5.000000E-01  9.792101E-01  1.353514E-02  0.000000E+00 -2.529829E-03  1.089207E-03  1.470742E-16 -7.940709E-01  0.000000E+00
  9.649940E-01  1.508666E-02  5.000000E-01  9.747354E-01  1.541247E-02  0.000000E+00 -2.829642E-03  1.159293E-03  8.887159E-17 -7.954686E-01  0.000000E+00
  9.600960E-01  1.702312E-02  5.000000E-01  9.697879E-01  1.736847E-02  0.000000E+00 -3.346961E-03  1.292065E-03  5.892387E-17 -7.959448E-01  0.000000E+00
  9.547180E-01  1.901729E-02  5.000000E-01  9.643556E-01  1.938278E-02  0.000000E+00 -3.940511E-03  1.403026E-03  4.538456E-17 -8.035850E-01  0.000000E+00
  9.488510E-01  2.104979E-02  5.000000E-01  9.584294E-01  2.143579E-02  0.000000E+00 -4.028143E-03  1.313499E-03  5.656318E-17 -8.419447E-01  0.000000E+00
  9.424820E-01  2.310536E-02  5.000000E-01  9.519961E-01  2.351211E-02  0.000000E+00 -2.449360E-03  7.493497E-04  1.359177E-16 -9.293987E-01  0.000000E+00
  9.356020E-01  2.517350E-02  5.000000E-01  9.450467E-01  2.560113E-02  0.000000E+00  2.060428E-03 -5.492995E-04  2.858435E-16 -1.046625E+00  0.000000E+00
  9.282010E-01  2.724805E-02  5.000000E-01  9.375709E-01  2.769662E-02  0.000000E+00  9.430874E-03 -2.469164E-03  4.212998E-16 -1.143835E+00  0.000000E+00
  9.202710E-01  2.932387E-02  5.000000E-01  9.295609E-01  2.979340E-02  0.000000E+00  1.718473E-02 -4.285038E-03  5.021510E-16 -1.187477E+00  0.000000E+00
  9.118010E-01  3.138876E-02  5.000000E-01  9.210054E-01  3.187914E-02  0.000000E+00  2.230710E-02 -5.230360E-03  5.772462E-16 -1.183679E+00  0.000000E+00
  9.027810E-01  3.342666E-02  5.000000E-01  9.118943E-01  3.393761E-02  0.000000E+00  2.407568E-02 -5.237408E-03  5.646552E-16 -1.156472E+00  0.000000E+00
  8.932000E-01  3.542180E-02  5.000000E-01  9.022166E-01  3.595288E-02  0.000000E+00  2.386880E-02 -4.767069E-03  3.472419E-16 -1.122405E+00  0.000000E+00
  8.830490E-01  3.735587E-02  5.000000E-01  8.919631E-01  3.790648E-02  0.000000E+00  2.317430E-02 -4.211306E-03  5.161770E-17 -1.086975E+00  0.000000E+00
  8.723190E-01  3.920789E-02  5.000000E-01  8.811248E-01  3.977719E-02  0.000000E+00  2.263986E-02 -3.704814E-03 -2.326558E-16 -1.050856E+00  0.000000E+00
  8.723190E-01  3.920789E-02  5.000000E-01  8.811248E-01  3.977719E-02  0.000000E+00  2.263986E-02 -3.704814E-03 -2.326558E-16 -1.050856E+00  0.000000E+00
  8.610010E-01  4.095716E-02  5.000000E-01  8.696926E-01  4.154412E-02  0.000000E+00  2.229212E-02 -3.245781E-03 -4.290323E-16 -1.013817E+00  0.000000E+00
  8.490890E-01  4.258441E-02  5.000000E-01  8.576603E-01  4.318780E-02  0.000000E+00  2.197097E-02 -2.808745E-03 -4.952576E-16 -9.759375E-01  0.000000E+00
  8.365770E-01  4.407381E-02  5.000000E-01  8.450220E-01  4.469224E-02  0.000000E+00  2.155778E-02 -2.389273E-03 -5.147988E-16 -9.381719E-01  0.000000E+00
  8.234620E-01  4.541899E-02  5.000000E-01  8.317746E-01  4.605100E-02  0.000000E+00  2.102415E-02 -2.006636E-03 -4.772252E-16 -9.027798E-01  0.000000E+00
  8.097400E-01  4.662940E-02  5.000000E-01  8.179141E-01  4.727362E-02  0.000000E+00  2.040450E-02 -1.695206E-03 -3.778230E-16 -8.736213E-01  0.000000E+00
  7.954150E-01  4.774220E-02  5.000000E-01  8.034445E-01  4.839765E-02  0.000000E+00  1.976478E-02 -1.496447E-03 -2.482858E-16 -8.556842E-01  0.000000E+00
  7.804870E-01  4.883592E-02  5.000000E-01  7.883658E-01  4.950242E-02  0.000000E+00  1.920889E-02 -1.437619E-03 -1.331318E-16 -8.524242E-01  0.000000E+00
  7.649630E-01  5.001895E-02  5.000000E-01  7.726851E-01  5.069739E-02  0.000000E+00  1.889630E-02 -1.490532E-03 -5.875231E-17 -8.614517E-01  0.000000E+00
  7.488530E-01  5.133478E-02  5.000000E-01  7.564125E-01  5.202650E-02  0.000000E+00  1.892349E-02 -1.603577E-03 -2.714757E-17 -8.770809E-01  0.000000E+00
  7.321700E-01  5.280026E-02  5.000000E-01  7.395611E-01  5.350678E-02  0.000000E+00  1.923332E-02 -1.751723E-03 -2.494774E-17 -8.953452E-01  0.000000E+00
  7.149290E-01  5.442513E-02  5.000000E-01  7.221460E-01  5.514805E-02  0.000000E+00  1.970432E-02 -1.916484E-03 -3.334198E-17 -9.134389E-01  0.000000E+00
  6.971500E-01  5.620632E-02  5.000000E-01  7.041876E-01  5.694721E-02  0.000000E+00  2.023587E-02 -2.072891E-03 -3.463371E-17 -9.287744E-01  0.000000E+00
  6.788570E-01  5.812106E-02  5.000000E-01  6.857099E-01  5.888129E-02  0.000000E+00  2.077576E-02 -2.189607E-03 -2.053882E-17 -9.387516E-01  0.000000E+00
  6.600760E-01  6.011629E-02  5.000000E-01  6.667393E-01  6.089666E-02  0.000000E+00  2.129312E-02 -2.239077E-03  1.665179E-18 -9.415740E-01  0.000000E+00
  6.408370E-01  6.212049E-02  5.000000E-01  6.473061E-01  6.292109E-02  0.000000E+00  2.173960E-02 -2.218857E-03  2.246788E-17 -9.377137E-01  0.000000E+00
  6.211780E-01  6.408567E-02  5.000000E-01  6.274486E-01  6.490611E-02  0.000000E+00  2.208402E-02 -2.143447E-03  3.612727E-17 -9.288675E-01  0.000000E+00
  6.011430E-01  6.597246E-02  5.000000E-01  6.072114E-01  6.681194E-02  0.000000E+00  2.234356E-02 -2.024239E-03  3.988185E-17 -9.162482E-01  0.000000E+00
  5.807790E-01  6.774485E-02  5.000000E-01  5.866418E-01  6.860223E-02  0.000000E+00  2.254816E-02 -1.872501E-03  3.854906E-17 -9.008192E-01  0.000000E+00
  5.601410E-01  6.937687E-02  5.000000E-01  5.657955E-01  7.025072E-02  0.000000E+00  2.272373E-02 -1.697093E-03  3.757069E-17 -8.832829E-01  0.000000E+00
  5.392850E-01  7.084380E-02  5.000000E-01  5.447290E-01  7.173246E-02  0.000000E+00  2.288461E-02 -1.504789E-03  3.680222E-17 -8.642688E-01  0.000000E+00
  5.182680E-01  7.212978E-02  5.000000E-01  5.234998E-01  7.303142E-02  0.000000E+00  2.303010E-02 -1.306385E-03  3.240999E-17 -8.447440E-01  0.000000E+00
  4.971500E-01  7.323336E-02  5.000000E-01  5.021686E-01  7.414614E-02  0.000000E+00  2.316701E-02 -1.108953E-03  2.215138E-17 -8.253842E-01  0.000000E+00
  4.759900E-01  7.415366E-02  5.000000E-01  4.807950E-01  7.507574E-02  0.000000E+00  2.331135E-02 -9.125823E-04  2.019303E-18 -8.063069E-01  0.000000E+00
  2.733630E-06 -4.855492E-04  5.000000E-01  2.813636E-06 -3.169370E-04  0.000000E+00  4.686376E-04 -1.840570E-02  1.154986E-14  1.096919E+00  0.000000E+00
  4.455870E-05 -1.426487E-03  5.000000E-01  4.506092E-05 -1.267374E-03  0.000000E+00  2.258771E-03 -2.190601E-02  1.094032E-14  1.067589E+00  0.000000E+00
  2.731490E-04 -2.958883E-03  5.000000E-01  2.759588E-04 -2.815239E-03  0.000000E+00  6.593028E-03 -2.486040E-02  9.130527E-15  9.467726E-01  0.000000E+00
  9.950900E-04 -4.913571E-03  5.000000E-01  1.005188E-03 -4.789658E-03  0.000000E+00  1.277739E-02 -2.521995E-02  7.650931E-15  7.369512E-01  0.000000E+00
  2.349870E-03 -6.988405E-03  5.000000E-01  2.373644E-03 -6.885437E-03  0.000000E+00  1.846850E-02 -2.401697E-02  4.589489E-15  5.277883E-01  0.000000E+00
  4.254460E-03 -9.116584E-03  5.000000E-01  4.297460E-03 -9.035100E-03  0.000000E+00  2.308447E-02 -2.270169E-02 -5.846519E-16  3.564102E-01  0.000000E+00
  6.687140E-03 -1.123949E-02  5.000000E-01  6.754697E-03 -1.117944E-02  0.000000E+00  2.708526E-02 -2.121571E-02 -6.230348E-15  1.937160E-01  0.000000E+00
  9.634000E-03 -1.331959E-02  5.000000E-01  9.731305E-03 -1.328054E-02  0.000000E+00  3.034947E-02 -1.921528E-02 -1.062437E-14  2.840089E-02  0.000000E+00
  1.310530E-02 -1.528927E-02  5.000000E-01  1.323765E-02 -1.527010E-02  0.000000E+00  3.258111E-02 -1.656245E-02 -1.295447E-14 -1.355041E-01  0.000000E+00
  1.710810E-02 -1.709682E-02  5.000000E-01  1.728085E-02 -1.709590E-02  0.000000E+00  3.384669E-02 -1.378873E-02 -1.353451E-14 -2.755980E-01  0.000000E+00
  2.163760E-02 -1.874283E-02  5.000000E-01  2.185608E-02 -1.875852E-02  0.000000E+00  3.453636E-02 -1.137170E-02 -1.296103E-14 -3.825158E-01  0.000000E+00
  2.669190E-02 -2.023698E-02  5.000000E-01  2.696140E-02 -2.026775E-02  0.000000E+00  3.479520E-02 -9.238404E-03 -1.173359E-14 -4.687356E-01  0.000000E+00
  3.228310E-02 -2.155512E-02  5.000000E-01  3.260904E-02 -2.159920E-02  0.000000E+00  3.458162E-02 -7.265347E-03 -1.019839E-14 -5.439445E-01  0.000000E+00
  3.842170E-02 -2.268518E-02  5.000000E-01  3.880961E-02 -2.274066E-02  0.000000E+00  3.397869E-02 -5.528922E-03 -8.606602E-15 -6.070999E-01  0.000000E+00
  4.511710E-02 -2.362794E-02  5.000000E-01  4.557260E-02 -2.369294E-02  0.000000E+00  3.311468E-02 -4.075079E-03 -7.083904E-15 -6.569400E-01  0.000000E+00
  5.237940E-02 -2.438871E-02  5.000000E-01  5.290821E-02 -2.446139E-02  0.000000E+00  3.211182E-02 -2.908593E-03 -5.683237E-15 -6.930588E-01  0.000000E+00
  6.021800E-02 -2.498320E-02  5.000000E-01  6.082593E-02 -2.506188E-02  0.000000E+00  3.108850E-02 -2.021586E-03 -4.451451E-15 -7.154067E-01  0.000000E+00
  6.864140E-02 -2.543665E-02  5.000000E-01  6.933437E-02 -2.551991E-02  0.000000E+00  3.009547E-02 -1.369714E-03 -3.409483E-15 -7.255965E-01  0.000000E+00
  7.765990E-02 -2.577012E-02  5.000000E-01  7.844390E-02 -2.585674E-02  0.000000E+00  2.911812E-02 -9.020256E-04 -2.547568E-15 -7.254359E-01  0.000000E+00
  8.728340E-02 -2.600872E-02  5.000000E-01  8.816455E-02 -2.609776E-02  0.000000E+00  2.810646E-02 -5.915724E-04 -1.850680E-15 -7.152945E-01  0.000000E+00
  9.752070E-02 -2.618469E-02  5.000000E-01  9.850519E-02 -2.627551E-02  0.000000E+00  2.693644E-02 -4.120721E-04 -1.307034E-15 -6.951220E-01  0.000000E+00
  1.083810E-01 -2.632998E-02  5.000000E-01  1.094751E-01 -2.642226E-02  0.000000E+00  2.544981E-02 -3.367520E-04 -9.011330E-16 -6.642770E-01  0.000000E+00
  1.198710E-01 -2.648036E-02  5.000000E-01  1.210811E-01 -2.657415E-02  0.000000E+00  2.359405E-02 -3.440560E-04 -6.116297E-16 -6.209735E-01  0.000000E+00
  1.319970E-01 -2.667572E-02  5.000000E-01  1.333295E-01 -2.677149E-02  0.000000E+00  2.155288E-02 -4.081531E-04 -4.404234E-16 -5.634816E-01  0.000000E+00
  1.319970E-01 -2.667572E-02  5.000000E-01  1.333295E-01 -2.677149E-02  0.000000E+00  2.155288E-02 -4.081531E-04 -4.404234E-16 -5.634816E-01  0.000000E+00
  1.447640E-01 -2.695353E-02  5.000000E-01  1.462254E-01 -2.705210E-02  0.000000E+00  1.976292E-02 -5.069812E-04 -3.549960E-16 -4.923694E-01  0.000000E+00
  1.581750E-01 -2.734820E-02  5.000000E-01  1.597718E-01 -2.745076E-02  0.000000E+00  1.872076E-02 -6.310142E-04 -3.185250E-16 -4.140183E-01  0.000000E+00
  1.722290E-01 -2.788024E-02  5.000000E-01  1.739676E-01 -2.798817E-02  0.000000E+00  1.867832E-02 -7.696302E-04 -3.322246E-16 -3.427477E-01  0.000000E+00
  1.869240E-01 -2.853664E-02  5.000000E-01  1.888110E-01 -2.865120E-02  0.000000E+00  1.948699E-02 -8.785779E-04 -3.759604E-16 -2.969735E-01  0.000000E+00
  2.022540E-01 -2.924515E-02  5.000000E-01  2.042957E-01 -2.936686E-02  0.000000E+00  2.068601E-02 -8.552127E-04 -4.270141E-16 -2.903829E-01  0.000000E+00
  2.182110E-01 -2.984324E-02  5.000000E-01  2.204138E-01 -2.997099E-02  0.000000E+00  2.178714E-02 -6.415821E-04 -4.655165E-16 -3.195596E-01  0.000000E+00
  2.347810E-01 -3.020382E-02  5.000000E-01  2.371511E-01 -3.033520E-02  0.000000E+00  2.249670E-02 -3.207712E-04 -4.683752E-16 -3.633316E-01  0.000000E+00
  2.519470E-01 -3.031664E-02  5.000000E-01  2.544904E-01 -3.044917E-02  0.000000E+00  2.264862E-02  3.294124E-06 -4.358384E-16 -4.011104E-01  0.000000E+00
  2.696890E-01 -3.019009E-02  5.000000E-01  2.724115E-01 -3.032134E-02  0.000000E+00  2.219007E-02  2.779074E-04 -3.899846E-16 -4.220085E-01  0.000000E+00
  2.879810E-01 -2.985498E-02  5.000000E-01  2.908881E-01 -2.998284E-02  0.000000E+00  2.128881E-02  4.636424E-04 -3.403524E-16 -4.213356E-01  0.000000E+00
  3.067920E-01 -2.937208E-02  5.000000E-01  3.098890E-01 -2.949507E-02  0.000000E+00  2.029381E-02  5.411847E-04 -2.874401E-16 -3.999826E-01  0.000000E+00
  3.260870E-01 -2.883203E-02  5.000000E-01  3.293788E-01 -2.894957E-02  0.000000E+00  1.956086E-02  5.213703E-04 -2.347955E-16 -3.650450E-01  0.000000E+00
  3.458260E-01 -2.833357E-02  5.000000E-01  3.493171E-01 -2.844607E-02  0.000000E+00  1.923979E-02  4.650285E-04 -1.948332E-16 -3.302343E-01  0.000000E+00
  3.659650E-01 -2.787649E-02  5.000000E-01  3.696594E-01 -2.798438E-02  0.000000E+00  1.925766E-02  4.407532E-04 -1.874916E-16 -3.083448E-01  0.000000E+00
  3.864540E-01 -2.741017E-02  5.000000E-01  3.903552E-01 -2.751335E-02  0.000000E+00  1.944973E-02  4.709144E-04 -2.212456E-16 -3.026206E-01  0.000000E+00
  4.072410E-01 -2.687988E-02  5.000000E-01  4.113520E-01 -2.697771E-02  0.000000E+00  1.961160E-02  5.538341E-04 -2.742147E-16 -3.085153E-01  0.000000E+00
  4.282690E-01 -2.623021E-02  5.000000E-01  4.325923E-01 -2.632148E-02  0.000000E+00  1.952919E-02  6.812327E-04 -3.162783E-16 -3.182441E-01  0.000000E+00
  4.494800E-01 -2.540407E-02  5.000000E-01  4.540174E-01 -2.548700E-02  0.000000E+00  1.907104E-02  8.249084E-04 -3.210230E-16 -3.226675E-01  0.000000E+00
  4.708130E-01 -2.438155E-02  5.000000E-01  4.755658E-01 -2.445416E-02  0.000000E+00  1.827035E-02  9.414137E-04 -2.824065E-16 -3.135059E-01  0.000000E+00
  4.922030E-01 -2.319239E-02  5.000000E-01  4.971717E-01 -2.325299E-02  0.000000E+00  1.729291E-02  1.012991E-03 -2.152437E-16 -2.880281E-01  0.000000E+00
  5.135860E-01 -2.186886E-02  5.000000E-01  5.187705E-01 -2.191611E-02  0.000000E+00  1.634503E-02  1.052364E-03 -1.446278E-16 -2.502321E-01  0.000000E+00
  5.348990E-01 -2.044033E-02  5.000000E-01  5.402987E-01 -2.047316E-02  0.000000E+00  1.558821E-02  1.075911E-03 -8.584570E-17 -2.077484E-01  0.000000E+00
  5.560760E-01 -1.893740E-02  5.000000E-01  5.616895E-01 -1.895506E-02  0.000000E+00  1.506834E-02  1.097790E-03 -3.446343E-17 -1.687373E-01  0.000000E+00
  4.759900E-01  7.415366E-02  5.000000E-01  4.807950E-01  7.507574E-02  0.000000E+00  2.331135E-02 -9.125823E-04  2.019303E-18 -8.063069E-01  0.000000E+00
  4.548480E-01  7.488961E-02  5.000000E-01  4.594396E-01  7.581911E-02  0.000000E+00  2.347055E-02 -7.169437E-04 -2.102591E-17 -7.874734E-01  0.000000E+00
  4.337860E-01  7.544307E-02  5.000000E-01  4.381650E-01  7.637816E-02  0.000000E+00  2.364616E-02 -5.188115E-04 -4.060278E-17 -7.684724E-01  0.000000E+00
  4.128620E-01  7.581202E-02  5.000000E-01  4.170298E-01  7.675083E-02  0.000000E+00  2.383967E-02 -3.067034E-04 -5.753011E-17 -7.481788E-01  0.000000E+00
  3.921340E-01  7.598115E-02  5.000000E-01  3.960925E-01  7.692167E-02  0.000000E+00  2.403740E-02 -6.970665E-05 -6.902079E-17 -7.254232E-01  0.000000E+00
  3.716590E-01  7.593408E-02  5.000000E-01  3.754108E-01  7.687412E-02  0.000000E+00  2.420861E-02  1.955806E-04 -7.475532E-17 -6.995777E-01  0.000000E+00
  3.514890E-01  7.565583E-02  5.000000E-01  3.550372E-01  7.659307E-02  0.000000E+00  2.432274E-02  4.879652E-04 -7.357050E-17 -6.705113E-01  0.000000E+00
  3.316730E-01  7.513545E-02  5.000000E-01  3.350212E-01  7.606743E-02  0.000000E+00  2.435441E-02  7.999067E-04 -6.717621E-17 -6.388506E-01  0.000000E+00
  3.122580E-01  7.437005E-02  5.000000E-01  3.154102E-01  7.529431E-02  0.000000E+00  2.427921E-02  1.109895E-03 -5.952527E-17 -6.064903E-01  0.000000E+00
  2.932850E-01  7.338183E-02  5.000000E-01  2.962457E-01  7.429610E-02  0.000000E+00  2.409287E-02  1.395897E-03 -5.672577E-17 -5.756177E-01  0.000000E+00
  2.747930E-01  7.220047E-02  5.000000E-01  2.775670E-01  7.310283E-02  0.000000E+00  2.382379E-02  1.652997E-03 -5.987820E-17 -5.473410E-01  0.000000E+00
  2.568150E-01  7.085282E-02  5.000000E-01  2.594075E-01  7.174157E-02  0.000000E+00  2.351001E-02  1.886205E-03 -6.501741E-17 -5.219600E-01  0.000000E+00
  2.393810E-01  6.936157E-02  5.000000E-01  2.417975E-01  7.023527E-02  0.000000E+00  2.318572E-02  2.103417E-03 -6.962506E-17 -4.996960E-01  0.000000E+00
  2.225160E-01  6.774527E-02  5.000000E-01  2.247623E-01  6.860265E-02  0.000000E+00  2.287835E-02  2.310449E-03 -7.044273E-17 -4.817776E-01  0.000000E+00
  2.062420E-01  6.601825E-02  5.000000E-01  2.083240E-01  6.685820E-02  0.000000E+00  2.259083E-02  2.478949E-03 -6.533942E-17 -4.730550E-01  0.000000E+00
  1.905750E-01  6.423717E-02  5.000000E-01  1.924988E-01  6.505913E-02  0.000000E+00  2.234397E-02  2.552074E-03 -6.113954E-17 -4.808121E-01  0.000000E+00
  1.755290E-01  6.250556E-02  5.000000E-01  1.773010E-01  6.331005E-02  0.000000E+00  2.228487E-02  2.549515E-03 -6.572632E-17 -5.056804E-01  0.000000E+00
  1.611160E-01  6.086607E-02  5.000000E-01  1.627425E-01  6.165401E-02  0.000000E+00  2.259537E-02  2.552809E-03 -7.940941E-17 -5.406603E-01  0.000000E+00
  1.473410E-01  5.932156E-02  5.000000E-01  1.488284E-01  6.009391E-02  0.000000E+00  2.331300E-02  2.610511E-03 -1.065868E-16 -5.780814E-01  0.000000E+00
  1.342110E-01  5.785478E-02  5.000000E-01  1.355659E-01  5.861232E-02  0.000000E+00  2.432308E-02  2.737858E-03 -1.647162E-16 -6.124236E-01  0.000000E+00
  1.217280E-01  5.644032E-02  5.000000E-01  1.229569E-01  5.718358E-02  0.000000E+00  2.544827E-02  2.934864E-03 -2.755129E-16 -6.410180E-01  0.000000E+00
  1.098910E-01  5.505260E-02  5.000000E-01  1.110004E-01  5.578185E-02  0.000000E+00  2.655546E-02  3.207122E-03 -4.508482E-16 -6.628636E-01  0.000000E+00
  9.869950E-02  5.366287E-02  5.000000E-01  9.969589E-02  5.437809E-02  0.000000E+00  2.759420E-02  3.569977E-03 -6.564312E-16 -6.775963E-01  0.000000E+00
  8.814970E-02  5.224471E-02  5.000000E-01  8.903960E-02  5.294561E-02  0.000000E+00  2.857848E-02  4.049404E-03 -9.656795E-16 -6.847544E-01  0.000000E+00
  8.814970E-02  5.224471E-02  5.000000E-01  8.903960E-02  5.294561E-02  0.000000E+00  2.857848E-02  4.049404E-03 -9.656795E-16 -6.847544E-01  0.000000E+00
  7.823720E-02  5.077045E-02  5.000000E-01  7.902703E-02  5.145647E-02  0.000000E+00  2.954887E-02  4.688316E-03 -1.386261E-15 -6.830487E-01  0.000000E+00
  6.895800E-02  4.920867E-02  5.000000E-01  6.965416E-02  4.987893E-02  0.000000E+00  3.051716E-02  5.528691E-03 -1.842275E-15 -6.709749E-01  0.000000E+00
  6.030560E-02  4.753314E-02  5.000000E-01  6.091442E-02  4.818649E-02  0.000000E+00  3.146765E-02  6.624918E-03 -2.313191E-15 -6.460661E-01  0.000000E+00
  5.227560E-02  4.571138E-02  5.000000E-01  5.280336E-02  4.634633E-02  0.000000E+00  3.234128E-02  8.038188E-03 -2.700936E-15 -6.048086E-01  0.000000E+00
  4.486350E-02  4.371250E-02  5.000000E-01  4.531644E-02  4.432728E-02  0.000000E+00  3.299706E-02  9.789693E-03 -2.927849E-15 -5.441725E-01  0.000000E+00
  3.806240E-02  4.151433E-02  5.000000E-01  3.844668E-02  4.210691E-02  0.000000E+00  3.325008E-02  1.187694E-02 -2.949468E-15 -4.602785E-01  0.000000E+00
  3.186880E-02  3.909233E-02  5.000000E-01  3.219056E-02  3.966047E-02  0.000000E+00  3.285655E-02  1.420800E-02 -2.721951E-15 -3.499321E-01  0.000000E+00
  2.627530E-02  3.643689E-02  5.000000E-01  2.654059E-02  3.697822E-02  0.000000E+00  3.156229E-02  1.655728E-02 -2.205717E-15 -2.123575E-01  0.000000E+00
  2.127350E-02  3.355040E-02  5.000000E-01  2.148830E-02  3.406259E-02  0.000000E+00  2.924151E-02  1.864999E-02 -1.455005E-15 -4.760841E-02  0.000000E+00
  1.685790E-02  3.044001E-02  5.000000E-01  1.702813E-02  3.092081E-02  0.000000E+00  2.594281E-02  2.012931E-02 -6.551718E-16  1.387597E-01  0.000000E+00
  1.301460E-02  2.714084E-02  5.000000E-01  1.314603E-02  2.758833E-02  0.000000E+00  2.192436E-02  2.070479E-02 -1.103568E-17  3.371543E-01  0.000000E+00
  9.730790E-03  2.369825E-02  5.000000E-01  9.829072E-03  2.411099E-02  0.000000E+00  1.758635E-02  2.030655E-02  3.724365E-16  5.385168E-01  0.000000E+00
  6.996180E-03  2.016718E-02  5.000000E-01  7.066857E-03  2.054428E-02  0.000000E+00  1.333546E-02  1.891478E-02  5.284091E-16  7.278318E-01  0.000000E+00
  4.781010E-03  1.663911E-02  5.000000E-01  4.829325E-03  1.698059E-02  0.000000E+00  9.485320E-03  1.662371E-02  5.501014E-16  8.915004E-01  0.000000E+00
  3.054950E-03  1.320952E-02  5.000000E-01  3.085841E-03  1.351638E-02  0.000000E+00  6.194683E-03  1.364874E-02  5.142841E-16  1.024939E+00  0.000000E+00
  1.789910E-03  9.973561E-03  5.000000E-01  1.808031E-03  1.024775E-02  0.000000E+00  3.552405E-03  1.011981E-02  4.815035E-16  1.123535E+00  0.000000E+00
  9.331870E-04  7.040289E-03  5.000000E-01  9.426596E-04  7.284872E-03  0.000000E+00  1.620702E-03  6.118758E-03  5.130428E-16  1.183567E+00  0.000000E+00
  4.085430E-04  4.518198E-03  5.000000E-01  4.127195E-04  4.737322E-03  0.000000E+00  3.811620E-04  1.735018E-03  6.639347E-16  1.207881E+00  0.000000E+00
  1.354760E-04  2.494560E-03  5.000000E-01  1.368960E-04  2.693255E-03  0.000000E+00 -2.396877E-04 -2.994087E-03  9.077361E-16  1.204190E+00  0.000000E+00
  2.683130E-05  1.021514E-03  5.000000E-01  2.715456E-05  1.205340E-03  0.000000E+00 -3.441447E-04 -8.061905E-03  8.512157E-16  1.180839E+00  0.000000E+00
  1.320070E-06  1.276971E-04  5.000000E-01  1.385807E-06  3.024998E-04  0.000000E+00 -2.077762E-04 -1.298706E-02  9.240394E-16  1.140479E+00  0.000000E+00
 -5.188750E-08 -1.717795E-04  5.000000E-01  0.000000E+00  0.000000E+00  0.000000E+00 -4.372865E-05 -1.611276E-02  6.101095E-15  1.105513E+00  0.000000E+00