 Title = "ADflow Slice Data"
Variables =  "CoordinateX"  "CoordinateY"  "CoordinateZ"  "XoC"  "YoC"  "ZoC" "VelocityX" "VelocityY" "VelocityZ" "CoefPressure" "Mach" 
Zone T= "Slice_0001 None Absolute Regular z = 0.50000000"
 Nodes =          192  Elements=          184  ZONETYPE=FELINESEG
 DATAPACKING=POINT
  5.560760E-01 -1.893738E-02  5.000000E-01  5.616895E-01 -1.895504E-02  0.000000E+00  1.506852E-02  1.097794E-03  3.657861E-19 -1.687444E-01  0.000000E+00
  5.770550E-01 -1.737422E-02  5.000000E-01  5.828802E-01 -1.737609E-02  0.000000E+00  1.470297E-02  1.131688E-03  2.839528E-19 -1.386727E-01  0.000000E+00
  5.977760E-01 -1.573236E-02  5.000000E-01  6.038104E-01 -1.571766E-02  0.000000E+00  1.434475E-02  1.180847E-03  7.852953E-21 -1.170474E-01  0.000000E+00
  6.181820E-01 -1.398904E-02  5.000000E-01  6.244224E-01 -1.395674E-02  0.000000E+00  1.385994E-02  1.236327E-03  1.124932E-19 -9.831512E-02  0.000000E+00
  6.382180E-01 -1.212082E-02  5.000000E-01  6.446607E-01 -1.206966E-02  0.000000E+00  1.317284E-02  1.283628E-03  5.170516E-19 -7.591676E-02  0.000000E+00
  6.578350E-01 -1.011752E-02  5.000000E-01  6.644757E-01 -1.004614E-02  0.000000E+00  1.228073E-02  1.306145E-03 -3.474120E-20 -4.560577E-02  0.000000E+00
  6.769910E-01 -7.989230E-03  5.000000E-01  6.838251E-01 -7.896366E-03  0.000000E+00  1.122982E-02  1.293461E-03  9.451789E-20 -7.219638E-03  0.000000E+00
  6.956490E-01 -5.755927E-03  5.000000E-01  7.026714E-01 -5.640518E-03  0.000000E+00  1.008192E-02  1.242164E-03 -3.460529E-20  3.650853E-02  0.000000E+00
  7.137810E-01 -3.451367E-03  5.000000E-01  7.209864E-01 -3.312694E-03  0.000000E+00  8.894252E-03  1.153370E-03 -1.619656E-19  8.239190E-02  0.000000E+00
  7.313660E-01 -1.120511E-03  5.000000E-01  7.387490E-01 -9.583087E-04  0.000000E+00  7.709570E-03  1.035053E-03 -6.297520E-20  1.278361E-01  0.000000E+00
  7.483850E-01  1.196886E-03  5.000000E-01  7.559398E-01  1.382482E-03  0.000000E+00  6.563085E-03  9.013840E-04  5.867778E-19  1.711210E-01  0.000000E+00
  7.648220E-01  3.475077E-03  5.000000E-01  7.725427E-01  3.683670E-03  0.000000E+00  5.499862E-03  7.667409E-04  9.102390E-19  2.113351E-01  0.000000E+00
  7.806630E-01  5.696435E-03  5.000000E-01  7.885436E-01  5.927453E-03  0.000000E+00  4.589261E-03  6.367955E-04 -6.806258E-20  2.488139E-01  0.000000E+00
  7.958970E-01  7.793024E-03  5.000000E-01  8.039314E-01  8.045206E-03  0.000000E+00  3.923614E-03  5.111323E-04 -4.590475E-19  2.851133E-01  0.000000E+00
  8.105170E-01  9.581287E-03  5.000000E-01  8.186990E-01  9.851521E-03  0.000000E+00  3.565160E-03  3.974782E-04 -6.083722E-19  3.175445E-01  0.000000E+00
  8.245160E-01  1.096954E-02  5.000000E-01  8.328393E-01  1.125379E-02  0.000000E+00  3.500892E-03  3.032701E-04 -2.593220E-19  3.407532E-01  0.000000E+00
  8.378940E-01  1.195583E-02  5.000000E-01  8.463523E-01  1.225004E-02  0.000000E+00  3.669820E-03  2.236722E-04  8.534636E-20  3.542292E-01  0.000000E+00
  8.506490E-01  1.258266E-02  5.000000E-01  8.592361E-01  1.288319E-02  0.000000E+00  4.006054E-03  1.495404E-04  2.390902E-19  3.609353E-01  0.000000E+00
  8.627850E-01  1.290858E-02  5.000000E-01  8.714946E-01  1.321240E-02  0.000000E+00  4.455444E-03  7.365357E-05  1.970183E-19  3.634025E-01  0.000000E+00
  8.743060E-01  1.299333E-02  5.000000E-01  8.831319E-01  1.329800E-02  0.000000E+00  4.974330E-03 -7.904082E-06 -5.974262E-19  3.627731E-01  0.000000E+00
  8.852170E-01  1.288862E-02  5.000000E-01  8.941530E-01  1.319224E-02  0.000000E+00  5.528395E-03 -9.653743E-05 -1.238882E-18  3.596852E-01  0.000000E+00
  8.955250E-01  1.263551E-02  5.000000E-01  9.045651E-01  1.293657E-02  0.000000E+00  6.093547E-03 -1.922563E-04 -8.356981E-19  3.546627E-01  0.000000E+00
  9.052400E-01  1.226700E-02  5.000000E-01  9.143782E-01  1.256434E-02  0.000000E+00  6.656466E-03 -2.950404E-04  7.990452E-20  3.481128E-01  0.000000E+00
  9.143710E-01  1.180877E-02  5.000000E-01  9.236013E-01  1.210149E-02  0.000000E+00  7.215931E-03 -4.076783E-04 -5.082124E-19  3.404673E-01  0.000000E+00
  9.143710E-01  1.180877E-02  5.000000E-01  9.236013E-01  1.210149E-02  0.000000E+00  7.215931E-03 -4.076783E-04 -5.082124E-19  3.404673E-01  0.000000E+00
  9.229270E-01  1.127574E-02  5.000000E-01  9.322437E-01  1.156308E-02  0.000000E+00  7.782248E-03 -5.357119E-04 -1.360107E-18  3.319652E-01  0.000000E+00
  9.309180E-01  1.067722E-02  5.000000E-01  9.403154E-01  1.095851E-02  0.000000E+00  8.372783E-03 -6.844234E-04 -6.726531E-19  3.223548E-01  0.000000E+00
  9.383550E-01  1.002185E-02  5.000000E-01  9.478274E-01  1.029653E-02  0.000000E+00  9.008244E-03 -8.587582E-04 -3.235745E-19  3.111718E-01  0.000000E+00
  9.452490E-01  9.318444E-03  5.000000E-01  9.547910E-01  9.586024E-03  0.000000E+00  9.712220E-03 -1.065479E-03 -2.733159E-20  2.980325E-01  0.000000E+00
  9.516100E-01  8.575459E-03  5.000000E-01  9.612163E-01  8.835539E-03  0.000000E+00  1.051129E-02 -1.313229E-03  2.687328E-19  2.825384E-01  0.000000E+00
  9.574470E-01  7.802437E-03  5.000000E-01  9.671122E-01  8.054713E-03  0.000000E+00  1.143318E-02 -1.610909E-03 -2.864457E-19  2.640894E-01  0.000000E+00
  9.627730E-01  7.010647E-03  5.000000E-01  9.724919E-01  7.254931E-03  0.000000E+00  1.250618E-02 -1.968062E-03 -1.253360E-18  2.419994E-01  0.000000E+00
  9.675950E-01  6.213551E-03  5.000000E-01  9.773626E-01  6.449788E-03  0.000000E+00  1.376150E-02 -2.394272E-03 -5.052715E-18  2.155489E-01  0.000000E+00
  9.719240E-01  5.426278E-03  5.000000E-01  9.817353E-01  5.654568E-03  0.000000E+00  1.523975E-02 -2.899849E-03 -5.101062E-18  1.839104E-01  0.000000E+00
  9.757700E-01  4.665267E-03  5.000000E-01  9.856201E-01  4.885875E-03  0.000000E+00  1.700464E-02 -3.501237E-03  1.995618E-17  1.462532E-01  0.000000E+00
  9.791410E-01  3.947061E-03  5.000000E-01  9.890252E-01  4.160419E-03  0.000000E+00  1.915575E-02 -4.223999E-03  7.397855E-17  1.016772E-01  0.000000E+00
  9.820450E-01  3.287585E-03  5.000000E-01  9.919585E-01  3.494286E-03  0.000000E+00  2.181152E-02 -5.099589E-03  7.315709E-17  4.883860E-02  0.000000E+00
  9.844890E-01  2.701621E-03  5.000000E-01  9.944272E-01  2.902406E-03  0.000000E+00  2.503635E-02 -6.152390E-03 -2.236666E-16 -1.396972E-02  0.000000E+00
  9.864800E-01  2.202493E-03  5.000000E-01  9.964383E-01  2.398240E-03  0.000000E+00  2.875895E-02 -7.337876E-03 -1.024721E-15 -8.719533E-02  0.000000E+00
  9.880230E-01  1.801938E-03  5.000000E-01  9.979968E-01  1.993642E-03  0.000000E+00  3.246658E-02 -8.457799E-03 -1.502906E-15 -1.778124E-01  0.000000E+00
  9.891220E-01  1.509208E-03  5.000000E-01  9.991069E-01  1.697956E-03  0.000000E+00  3.594006E-02 -9.743268E-03  2.174826E-15 -2.866521E-01  0.000000E+00
  9.897810E-01  1.330852E-03  5.000000E-01  9.997726E-01  1.517800E-03  0.000000E+00  5.277843E-02 -1.246249E-02  1.544101E-14 -3.054846E-01  0.000000E+00
  9.900000E-01  1.270979E-03  5.000000E-01  9.999938E-01  1.457323E-03  0.000000E+00  3.650498E-02 -2.271791E-03  2.189256E-14 -6.802956E-01  0.000000E+00
  9.900000E-01  1.680482E-03  5.000000E-01  9.999938E-01  1.870959E-03  0.000000E+00  2.127876E-03 -7.784877E-03  3.645611E-14 -9.797306E-01  0.000000E+00
  9.900000E-01  2.089984E-03  5.000000E-01  9.999938E-01  2.284595E-03  0.000000E+00 -5.416397E-04 -2.193298E-02  6.948205E-14 -8.245011E-01  0.000000E+00
  9.900000E-01  2.499487E-03  5.000000E-01  9.999938E-01  2.698232E-03  0.000000E+00 -1.402055E-04 -1.348730E-02  9.583696E-14 -7.968342E-01  0.000000E+00
  9.900000E-01  2.908974E-03  5.000000E-01  9.999938E-01  3.111853E-03  0.000000E+00  3.202165E-04 -8.314671E-03  1.144336E-13 -8.268163E-01  0.000000E+00
  9.900000E-01  3.318477E-03  5.000000E-01  9.999938E-01  3.525490E-03  0.000000E+00  4.471692E-03 -6.759615E-03  1.279125E-13 -7.915287E-01  0.000000E+00
  9.900000E-01  3.318477E-03  5.000000E-01  9.999938E-01  3.525490E-03  0.000000E+00  4.471692E-03 -6.759615E-03  1.279125E-13 -7.915287E-01  0.000000E+00
  9.897980E-01  3.422617E-03  5.000000E-01  9.997897E-01  3.630681E-03  0.000000E+00  5.440456E-03 -3.343189E-03  1.199254E-13 -7.432853E-01  0.000000E+00
  9.891900E-01  3.735032E-03  5.000000E-01  9.991756E-01  3.946249E-03  0.000000E+00  1.129737E-03 -5.170599E-04  8.507677E-14 -7.513407E-01  0.000000E+00
  9.881780E-01  4.255035E-03  5.000000E-01  9.981534E-01  4.471502E-03  0.000000E+00 -1.264616E-03  6.523927E-04  4.670617E-14 -7.584296E-01  0.000000E+00
  9.867570E-01  4.981326E-03  5.000000E-01  9.967180E-01  5.205124E-03  0.000000E+00 -2.628930E-03  1.328599E-03  1.898721E-14 -7.652864E-01  0.000000E+00
  9.849260E-01  5.910386E-03  5.000000E-01  9.948686E-01  6.143563E-03  0.000000E+00 -3.237670E-03  1.632662E-03  4.489599E-15 -7.750976E-01  0.000000E+00
  9.826810E-01  7.035729E-03  5.000000E-01  9.926009E-01  7.280266E-03  0.000000E+00 -3.243811E-03  1.615534E-03 -7.405990E-16 -7.842890E-01  0.000000E+00
  9.800160E-01  8.347613E-03  5.000000E-01  9.899090E-01  8.605393E-03  0.000000E+00 -2.935683E-03  1.430709E-03 -1.492784E-15 -7.899062E-01  0.000000E+00
  9.769240E-01  9.831959E-03  5.000000E-01  9.867858E-01  1.010472E-02  0.000000E+00 -2.610727E-03  1.233251E-03 -9.073401E-16 -7.920868E-01  0.000000E+00
  9.733970E-01  1.146762E-02  5.000000E-01  9.832232E-01  1.175690E-02  0.000000E+00 -2.455821E-03  1.111472E-03 -3.305855E-16 -7.928345E-01  0.000000E+00
  9.694240E-01  1.322810E-02  5.000000E-01  9.792101E-01  1.353515E-02  0.000000E+00 -2.529844E-03  1.089215E-03 -4.900984E-17 -7.940731E-01  0.000000E+00
  9.649940E-01  1.508667E-02  5.000000E-01  9.747354E-01  1.541248E-02  0.000000E+00 -2.829670E-03  1.159306E-03  2.775939E-17 -7.954708E-01  0.000000E+00
  9.600960E-01  1.702313E-02  5.000000E-01  9.697879E-01  1.736849E-02  0.000000E+00 -3.347004E-03  1.292083E-03  2.554780E-17 -7.959468E-01  0.000000E+00
  9.547180E-01  1.901731E-02  5.000000E-01  9.643556E-01  1.938279E-02  0.000000E+00 -3.940558E-03  1.403043E-03  1.140356E-17 -8.035875E-01  0.000000E+00
  9.488510E-01  2.104981E-02  5.000000E-01  9.584294E-01  2.143581E-02  0.000000E+00 -4.028156E-03  1.313504E-03  3.872530E-18 -8.419488E-01  0.000000E+00
  9.424820E-01  2.310538E-02  5.000000E-01  9.519961E-01  2.351213E-02  0.000000E+00 -2.449270E-03  7.493241E-04  4.756820E-18 -9.294049E-01  0.000000E+00
  9.356020E-01  2.517353E-02  5.000000E-01  9.450467E-01  2.560116E-02  0.000000E+00  2.060670E-03 -5.493674E-04  1.129574E-17 -1.046631E+00  0.000000E+00
  9.282010E-01  2.724807E-02  5.000000E-01  9.375709E-01  2.769665E-02  0.000000E+00  9.431213E-03 -2.469258E-03  2.301173E-17 -1.143840E+00  0.000000E+00
  9.202710E-01  2.932390E-02  5.000000E-01  9.295609E-01  2.979343E-02  0.000000E+00  1.718500E-02 -4.285112E-03  3.488969E-17 -1.187479E+00  0.000000E+00
  9.118010E-01  3.138880E-02  5.000000E-01  9.210054E-01  3.187917E-02  0.000000E+00  2.230720E-02 -5.230388E-03  3.779922E-17 -1.183680E+00  0.000000E+00
  9.027810E-01  3.342670E-02  5.000000E-01  9.118943E-01  3.393764E-02  0.000000E+00  2.407565E-02 -5.237405E-03  3.209335E-17 -1.156473E+00  0.000000E+00
  8.932000E-01  3.542183E-02  5.000000E-01  9.022166E-01  3.595292E-02  0.000000E+00  2.386874E-02 -4.767059E-03  2.405989E-17 -1.122405E+00  0.000000E+00
  8.830490E-01  3.735590E-02  5.000000E-01  8.919631E-01  3.790651E-02  0.000000E+00  2.317426E-02 -4.211300E-03  1.746942E-17 -1.086975E+00  0.000000E+00
  8.723190E-01  3.920793E-02  5.000000E-01  8.811248E-01  3.977723E-02  0.000000E+00  2.263985E-02 -3.704811E-03  1.319122E-17 -1.050856E+00  0.000000E+00
  8.723190E-01  3.920793E-02  5.000000E-01  8.811248E-01  3.977723E-02  0.000000E+00  2.263985E-02 -3.704811E-03  1.319122E-17 -1.050856E+00  0.000000E+00
  8.610010E-01  4.095719E-02  5.000000E-01  8.696926E-01  4.154416E-02  0.000000E+00  2.229210E-02 -3.245777E-03  1.116375E-17 -1.013817E+00  0.000000E+00
  8.490890E-01  4.258445E-02  5.000000E-01  8.576603E-01  4.318784E-02  0.000000E+00  2.197094E-02 -2.808738E-03  9.637097E-18 -9.759372E-01  0.000000E+00
  8.365770E-01  4.407384E-02  5.000000E-01  8.450220E-01  4.469227E-02  0.000000E+00  2.155772E-02 -2.389262E-03  8.800625E-18 -9.381714E-01  0.000000E+00
  8.234620E-01  4.541902E-02  5.000000E-01  8.317746E-01  4.605102E-02  0.000000E+00  2.102408E-02 -2.006622E-03  8.679736E-18 -9.027790E-01  0.000000E+00
  8.097400E-01  4.662942E-02  5.000000E-01  8.179141E-01  4.727364E-02  0.000000E+00  2.040441E-02 -1.695190E-03  8.524035E-18 -8.736201E-01  0.000000E+00
  7.954150E-01  4.774221E-02  5.000000E-01  8.034445E-01  4.839767E-02  0.000000E+00  1.976468E-02 -1.496432E-03  8.535715E-18 -8.556830E-01  0.000000E+00
  7.804870E-01  4.883593E-02  5.000000E-01  7.883658E-01  4.950242E-02  0.000000E+00  1.920881E-02 -1.437606E-03  8.601493E-18 -8.524231E-01  0.000000E+00
  7.649630E-01  5.001895E-02  5.000000E-01  7.726851E-01  5.069739E-02  0.000000E+00  1.889624E-02 -1.490522E-03  7.222326E-18 -8.614508E-01  0.000000E+00
  7.488530E-01  5.133477E-02  5.000000E-01  7.564125E-01  5.202649E-02  0.000000E+00  1.892347E-02 -1.603571E-03  3.786323E-18 -8.770805E-01  0.000000E+00
  7.321700E-01  5.280025E-02  5.000000E-01  7.395611E-01  5.350677E-02  0.000000E+00  1.923334E-02 -1.751722E-03 -3.003858E-19 -8.953453E-01  0.000000E+00
  7.149290E-01  5.442512E-02  5.000000E-01  7.221460E-01  5.514804E-02  0.000000E+00  1.970437E-02 -1.916488E-03 -5.759705E-18 -9.134394E-01  0.000000E+00
  6.971500E-01  5.620631E-02  5.000000E-01  7.041876E-01  5.694721E-02  0.000000E+00  2.023593E-02 -2.072897E-03 -1.121724E-17 -9.287751E-01  0.000000E+00
  6.788570E-01  5.812105E-02  5.000000E-01  6.857099E-01  5.888128E-02  0.000000E+00  2.077580E-02 -2.189613E-03 -1.594933E-17 -9.387524E-01  0.000000E+00
  6.600760E-01  6.011628E-02  5.000000E-01  6.667393E-01  6.089665E-02  0.000000E+00  2.129315E-02 -2.239081E-03 -1.881608E-17 -9.415747E-01  0.000000E+00
  6.408370E-01  6.212049E-02  5.000000E-01  6.473061E-01  6.292109E-02  0.000000E+00  2.173961E-02 -2.218859E-03 -1.953787E-17 -9.377143E-01  0.000000E+00
  6.211780E-01  6.408567E-02  5.000000E-01  6.274486E-01  6.490611E-02  0.000000E+00  2.208400E-02 -2.143446E-03 -2.001945E-17 -9.288680E-01  0.000000E+00
  6.011430E-01  6.597246E-02  5.000000E-01  6.072114E-01  6.681194E-02  0.000000E+00  2.234353E-02 -2.024238E-03 -1.879473E-17 -9.162487E-01  0.000000E+00
  5.807790E-01  6.774485E-02  5.000000E-01  5.866418E-01  6.860223E-02  0.000000E+00  2.254814E-02 -1.872501E-03 -1.578544E-17 -9.008197E-01  0.000000E+00
  5.601410E-01  6.937687E-02  5.000000E-01  5.657955E-01  7.025072E-02  0.000000E+00  2.272372E-02 -1.697096E-03 -1.303763E-17 -8.832835E-01  0.000000E+00
  5.392850E-01  7.084381E-02  5.000000E-01  5.447290E-01  7.173247E-02  0.000000E+00  2.288462E-02 -1.504794E-03 -1.145475E-17 -8.642696E-01  0.000000E+00
  5.182680E-01  7.212979E-02  5.000000E-01  5.234998E-01  7.303143E-02  0.000000E+00  2.303012E-02 -1.306390E-03 -1.008160E-17 -8.447448E-01  0.000000E+00
  4.971500E-01  7.323337E-02  5.000000E-01  5.021686E-01  7.414615E-02  0.000000E+00  2.316704E-02 -1.108956E-03 -8.912325E-18 -8.253849E-01  0.000000E+00
  4.759900E-01  7.415368E-02  5.000000E-01  4.807950E-01  7.507575E-02  0.000000E+00  2.331138E-02 -9.125816E-04 -8.607145E-18 -8.063072E-01  0.000000E+00
  2.733630E-06 -4.855493E-04  5.000000E-01  2.813636E-06 -3.169371E-04  0.000000E+00  4.686368E-04 -1.840569E-02  1.294854E-18  1.096919E+00  0.000000E+00
  4.455870E-05 -1.426488E-03  5.000000E-01  4.506092E-05 -1.267374E-03  0.000000E+00  2.258770E-03 -2.190600E-02  2.941488E-17  1.067589E+00  0.000000E+00
  2.731490E-04 -2.958884E-03  5.000000E-01  2.759588E-04 -2.815239E-03  0.000000E+00  6.593024E-03 -2.486039E-02  4.255476E-17  9.467730E-01  0.000000E+00
  9.950900E-04 -4.913572E-03  5.000000E-01  1.005188E-03 -4.789659E-03  0.000000E+00  1.277739E-02 -2.521995E-02  4.150123E-17  7.369518E-01  0.000000E+00
  2.349870E-03 -6.988407E-03  5.000000E-01  2.373644E-03 -6.885439E-03  0.000000E+00  1.846850E-02 -2.401697E-02  3.803347E-17  5.277890E-01  0.000000E+00
  4.254460E-03 -9.116586E-03  5.000000E-01  4.297460E-03 -9.035102E-03  0.000000E+00  2.308446E-02 -2.270170E-02  2.558821E-17  3.564109E-01  0.000000E+00
  6.687140E-03 -1.123950E-02  5.000000E-01  6.754697E-03 -1.117944E-02  0.000000E+00  2.708526E-02 -2.121572E-02  5.843963E-18  1.937167E-01  0.000000E+00
  9.634000E-03 -1.331960E-02  5.000000E-01  9.731305E-03 -1.328054E-02  0.000000E+00  3.034947E-02 -1.921529E-02 -6.828647E-18  2.840156E-02  0.000000E+00
  1.310530E-02 -1.528928E-02  5.000000E-01  1.323765E-02 -1.527010E-02  0.000000E+00  3.258112E-02 -1.656246E-02 -2.502634E-18 -1.355035E-01  0.000000E+00
  1.710810E-02 -1.709683E-02  5.000000E-01  1.728085E-02 -1.709590E-02  0.000000E+00  3.384671E-02 -1.378874E-02  2.263565E-17 -2.755973E-01  0.000000E+00
  2.163760E-02 -1.874283E-02  5.000000E-01  2.185608E-02 -1.875852E-02  0.000000E+00  3.453638E-02 -1.137172E-02  5.597622E-17 -3.825151E-01  0.000000E+00
  2.669190E-02 -2.023698E-02  5.000000E-01  2.696140E-02 -2.026775E-02  0.000000E+00  3.479523E-02 -9.238417E-03  7.908391E-17 -4.687349E-01  0.000000E+00
  3.228310E-02 -2.155512E-02  5.000000E-01  3.260904E-02 -2.159920E-02  0.000000E+00  3.458166E-02 -7.265360E-03  8.852011E-17 -5.439437E-01  0.000000E+00
  3.842170E-02 -2.268518E-02  5.000000E-01  3.880961E-02 -2.274067E-02  0.000000E+00  3.397871E-02 -5.528933E-03  9.040260E-17 -6.070990E-01  0.000000E+00
  4.511710E-02 -2.362795E-02  5.000000E-01  4.557260E-02 -2.369295E-02  0.000000E+00  3.311469E-02 -4.075089E-03  8.531839E-17 -6.569389E-01  0.000000E+00
  5.237940E-02 -2.438872E-02  5.000000E-01  5.290821E-02 -2.446140E-02  0.000000E+00  3.211181E-02 -2.908602E-03  7.647970E-17 -6.930575E-01  0.000000E+00
  6.021800E-02 -2.498321E-02  5.000000E-01  6.082593E-02 -2.506189E-02  0.000000E+00  3.108847E-02 -2.021596E-03  6.641753E-17 -7.154052E-01  0.000000E+00
  6.864140E-02 -2.543667E-02  5.000000E-01  6.933437E-02 -2.551993E-02  0.000000E+00  3.009543E-02 -1.369726E-03  5.451516E-17 -7.255947E-01  0.000000E+00
  7.765990E-02 -2.577013E-02  5.000000E-01  7.844390E-02 -2.585676E-02  0.000000E+00  2.911809E-02 -9.020399E-04  4.305842E-17 -7.254338E-01  0.000000E+00
  8.728340E-02 -2.600875E-02  5.000000E-01  8.816455E-02 -2.609779E-02  0.000000E+00  2.810643E-02 -5.915895E-04  3.436157E-17 -7.152920E-01  0.000000E+00
  9.752070E-02 -2.618472E-02  5.000000E-01  9.850519E-02 -2.627554E-02  0.000000E+00  2.693641E-02 -4.120919E-04  2.925536E-17 -6.951190E-01  0.000000E+00
  1.083810E-01 -2.633002E-02  5.000000E-01  1.094751E-01 -2.642230E-02  0.000000E+00  2.544978E-02 -3.367741E-04  2.454988E-17 -6.642731E-01  0.000000E+00
  1.198710E-01 -2.648041E-02  5.000000E-01  1.210811E-01 -2.657420E-02  0.000000E+00  2.359399E-02 -3.440795E-04  1.878102E-17 -6.209684E-01  0.000000E+00
  1.319970E-01 -2.667578E-02  5.000000E-01  1.333295E-01 -2.677155E-02  0.000000E+00  2.155277E-02 -4.081766E-04  1.342567E-17 -5.634746E-01  0.000000E+00
  1.319970E-01 -2.667578E-02  5.000000E-01  1.333295E-01 -2.677155E-02  0.000000E+00  2.155277E-02 -4.081766E-04  1.342567E-17 -5.634746E-01  0.000000E+00
  1.447640E-01 -2.695361E-02  5.000000E-01  1.462254E-01 -2.705218E-02  0.000000E+00  1.976275E-02 -5.070034E-04  9.429091E-18 -4.923603E-01  0.000000E+00
  1.581750E-01 -2.734830E-02  5.000000E-01  1.597718E-01 -2.745086E-02  0.000000E+00  1.872055E-02 -6.310353E-04  6.961460E-18 -4.140069E-01  0.000000E+00
  1.722290E-01 -2.788036E-02  5.000000E-01  1.739676E-01 -2.798829E-02  0.000000E+00  1.867812E-02 -7.696525E-04  5.506419E-18 -3.427342E-01  0.000000E+00
  1.869240E-01 -2.853678E-02  5.000000E-01  1.888110E-01 -2.865134E-02  0.000000E+00  1.948686E-02 -8.786056E-04  4.518678E-18 -2.969587E-01  0.000000E+00
  2.022540E-01 -2.924532E-02  5.000000E-01  2.042957E-01 -2.936703E-02  0.000000E+00  2.068600E-02 -8.552478E-04  3.218454E-18 -2.903680E-01  0.000000E+00
  2.182110E-01 -2.984344E-02  5.000000E-01  2.204138E-01 -2.997119E-02  0.000000E+00  2.178726E-02 -6.416205E-04  1.588776E-18 -3.195460E-01  0.000000E+00
  2.347810E-01 -3.020404E-02  5.000000E-01  2.371511E-01 -3.033543E-02  0.000000E+00  2.249689E-02 -3.208054E-04  1.906526E-18 -3.633197E-01  0.000000E+00
  2.519470E-01 -3.031689E-02  5.000000E-01  2.544904E-01 -3.044942E-02  0.000000E+00  2.264874E-02  3.268667E-06  2.119369E-18 -4.010995E-01  0.000000E+00
  2.696890E-01 -3.019036E-02  5.000000E-01  2.724115E-01 -3.032161E-02  0.000000E+00  2.219001E-02  2.778907E-04  1.012228E-18 -4.219972E-01  0.000000E+00
  2.879810E-01 -2.985525E-02  5.000000E-01  2.908881E-01 -2.998312E-02  0.000000E+00  2.128863E-02  4.636354E-04  1.742148E-18 -4.213231E-01  0.000000E+00
  3.067920E-01 -2.937235E-02  5.000000E-01  3.098890E-01 -2.949535E-02  0.000000E+00  2.029377E-02  5.411951E-04  2.892078E-18 -3.999709E-01  0.000000E+00
  3.260870E-01 -2.883228E-02  5.000000E-01  3.293788E-01 -2.894982E-02  0.000000E+00  1.956127E-02  5.214083E-04  2.314013E-18 -3.650399E-01  0.000000E+00
  3.458260E-01 -2.833378E-02  5.000000E-01  3.493171E-01 -2.844629E-02  0.000000E+00  1.924084E-02  4.650960E-04  1.201315E-18 -3.302435E-01  0.000000E+00
  3.659650E-01 -2.787665E-02  5.000000E-01  3.696594E-01 -2.798454E-02  0.000000E+00  1.925926E-02  4.408426E-04  1.684690E-18 -3.083742E-01  0.000000E+00
  3.864540E-01 -2.741027E-02  5.000000E-01  3.903552E-01 -2.751345E-02  0.000000E+00  1.945145E-02  4.710118E-04  3.615993E-19 -3.026691E-01  0.000000E+00
  4.072410E-01 -2.687992E-02  5.000000E-01  4.113520E-01 -2.697775E-02  0.000000E+00  1.961276E-02  5.539167E-04 -2.297440E-18 -3.085722E-01  0.000000E+00
  4.282690E-01 -2.623020E-02  5.000000E-01  4.325923E-01 -2.632147E-02  0.000000E+00  1.952925E-02  6.812693E-04 -2.487402E-18 -3.182906E-01  0.000000E+00
  4.494800E-01 -2.540402E-02  5.000000E-01  4.540174E-01 -2.548695E-02  0.000000E+00  1.906992E-02  8.248768E-04 -3.337407E-18 -3.226848E-01  0.000000E+00
  4.708130E-01 -2.438149E-02  5.000000E-01  4.755658E-01 -2.445410E-02  0.000000E+00  1.826853E-02  9.413257E-04 -3.564083E-18 -3.134867E-01  0.000000E+00
  4.922030E-01 -2.319233E-02  5.000000E-01  4.971717E-01 -2.325293E-02  0.000000E+00  1.729118E-02  1.012890E-03 -1.173636E-18 -2.879844E-01  0.000000E+00
  5.135860E-01 -2.186882E-02  5.000000E-01  5.187705E-01 -2.191606E-02  0.000000E+00  1.634395E-02  1.052289E-03  4.603352E-19 -2.501893E-01  0.000000E+00
  5.348990E-01 -2.044030E-02  5.000000E-01  5.402987E-01 -2.047312E-02  0.000000E+00  1.558789E-02  1.075880E-03  6.530854E-19 -2.077284E-01  0.000000E+00
  5.560760E-01 -1.893738E-02  5.000000E-01  5.616895E-01 -1.895504E-02  0.000000E+00  1.506852E-02  1.097794E-03  3.657861E-19 -1.687444E-01  0.000000E+00
  4.759900E-01  7.415368E-02  5.000000E-01  4.807950E-01  7.507575E-02  0.000000E+00  2.331138E-02 -9.125816E-04 -8.607145E-18 -8.063072E-01  0.000000E+00
  4.548480E-01  7.488962E-02  5.000000E-01  4.594396E-01  7.581912E-02  0.000000E+00  2.347056E-02 -7.169376E-04 -8.551730E-18 -7.874730E-01  0.000000E+00
  4.337860E-01  7.544307E-02  5.000000E-01  4.381650E-01  7.637816E-02  0.000000E+00  2.364614E-02 -5.187992E-04 -7.396133E-18 -7.684714E-01  0.000000E+00
  4.128620E-01  7.581201E-02  5.000000E-01  4.170298E-01  7.675083E-02  0.000000E+00  2.383962E-02 -3.066865E-04 -7.347684E-18 -7.481772E-01  0.000000E+00
  3.921340E-01  7.598113E-02  5.000000E-01  3.960925E-01  7.692165E-02  0.000000E+00  2.403733E-02 -6.968798E-05 -7.800670E-18 -7.254212E-01  0.000000E+00
  3.716590E-01  7.593404E-02  5.000000E-01  3.754108E-01  7.687408E-02  0.000000E+00  2.420853E-02  1.955982E-04 -7.831207E-18 -6.995757E-01  0.000000E+00
  3.514890E-01  7.565578E-02  5.000000E-01  3.550372E-01  7.659301E-02  0.000000E+00  2.432265E-02  4.879794E-04 -7.795424E-18 -6.705097E-01  0.000000E+00
  3.316730E-01  7.513538E-02  5.000000E-01  3.350212E-01  7.606736E-02  0.000000E+00  2.435435E-02  7.999159E-04 -6.185203E-18 -6.388497E-01  0.000000E+00
  3.122580E-01  7.436998E-02  5.000000E-01  3.154102E-01  7.529424E-02  0.000000E+00  2.427916E-02  1.109899E-03 -4.328259E-18 -6.064903E-01  0.000000E+00
  2.932850E-01  7.338175E-02  5.000000E-01  2.962457E-01  7.429603E-02  0.000000E+00  2.409285E-02  1.395897E-03 -4.039978E-18 -5.756185E-01  0.000000E+00
  2.747930E-01  7.220040E-02  5.000000E-01  2.775670E-01  7.310275E-02  0.000000E+00  2.382378E-02  1.652993E-03 -4.379807E-18 -5.473426E-01  0.000000E+00
  2.568150E-01  7.085275E-02  5.000000E-01  2.594075E-01  7.174150E-02  0.000000E+00  2.351001E-02  1.886199E-03 -4.036109E-18 -5.219621E-01  0.000000E+00
  2.393810E-01  6.936151E-02  5.000000E-01  2.417975E-01  7.023520E-02  0.000000E+00  2.318572E-02  2.103409E-03 -3.266850E-18 -4.996985E-01  0.000000E+00
  2.225160E-01  6.774521E-02  5.000000E-01  2.247623E-01  6.860259E-02  0.000000E+00  2.287835E-02  2.310440E-03 -2.779736E-18 -4.817804E-01  0.000000E+00
  2.062420E-01  6.601820E-02  5.000000E-01  2.083240E-01  6.685815E-02  0.000000E+00  2.259082E-02  2.478938E-03 -2.156517E-18 -4.730579E-01  0.000000E+00
  1.905750E-01  6.423712E-02  5.000000E-01  1.924988E-01  6.505909E-02  0.000000E+00  2.234396E-02  2.552062E-03 -1.390362E-18 -4.808150E-01  0.000000E+00
  1.755290E-01  6.250552E-02  5.000000E-01  1.773010E-01  6.331001E-02  0.000000E+00  2.228485E-02  2.549502E-03 -1.040213E-18 -5.056832E-01  0.000000E+00
  1.611160E-01  6.086604E-02  5.000000E-01  1.627425E-01  6.165398E-02  0.000000E+00  2.259536E-02  2.552797E-03  1.404588E-19 -5.406629E-01  0.000000E+00
  1.473410E-01  5.932154E-02  5.000000E-01  1.488284E-01  6.009389E-02  0.000000E+00  2.331299E-02  2.610500E-03  7.135789E-19 -5.780837E-01  0.000000E+00
  1.342110E-01  5.785476E-02  5.000000E-01  1.355659E-01  5.861230E-02  0.000000E+00  2.432307E-02  2.737849E-03  1.342532E-18 -6.124256E-01  0.000000E+00
  1.217280E-01  5.644031E-02  5.000000E-01  1.229569E-01  5.718357E-02  0.000000E+00  2.544828E-02  2.934855E-03  2.221962E-18 -6.410197E-01  0.000000E+00
  1.098910E-01  5.505259E-02  5.000000E-01  1.110004E-01  5.578184E-02  0.000000E+00  2.655547E-02  3.207114E-03  3.361799E-18 -6.628652E-01  0.000000E+00
  9.869950E-02  5.366286E-02  5.000000E-01  9.969589E-02  5.437809E-02  0.000000E+00  2.759420E-02  3.569970E-03  5.931754E-18 -6.775977E-01  0.000000E+00
  8.814970E-02  5.224470E-02  5.000000E-01  8.903960E-02  5.294561E-02  0.000000E+00  2.857848E-02  4.049396E-03  8.887947E-18 -6.847557E-01  0.000000E+00
  8.814970E-02  5.224470E-02  5.000000E-01  8.903960E-02  5.294561E-02  0.000000E+00  2.857848E-02  4.049396E-03  8.887947E-18 -6.847557E-01  0.000000E+00
  7.823720E-02  5.077045E-02  5.000000E-01  7.902703E-02  5.145647E-02  0.000000E+00  2.954886E-02  4.688309E-03  1.375844E-17 -6.830499E-01  0.000000E+00
  6.895800E-02  4.920868E-02  5.000000E-01  6.965416E-02  4.987894E-02  0.000000E+00  3.051716E-02  5.528685E-03  1.818482E-17 -6.709760E-01  0.000000E+00
  6.030560E-02  4.753315E-02  5.000000E-01  6.091442E-02  4.818649E-02  0.000000E+00  3.146765E-02  6.624912E-03  1.940186E-17 -6.460672E-01  0.000000E+00
  5.227560E-02  4.571138E-02  5.000000E-01  5.280336E-02  4.634634E-02  0.000000E+00  3.234128E-02  8.038183E-03  1.855562E-17 -6.048097E-01  0.000000E+00
  4.486350E-02  4.371251E-02  5.000000E-01  4.531644E-02  4.432728E-02  0.000000E+00  3.299706E-02  9.789689E-03  1.490889E-17 -5.441735E-01  0.000000E+00
  3.806240E-02  4.151433E-02  5.000000E-01  3.844668E-02  4.210692E-02  0.000000E+00  3.325008E-02  1.187694E-02  7.237138E-18 -4.602794E-01  0.000000E+00
  3.186880E-02  3.909234E-02  5.000000E-01  3.219056E-02  3.966048E-02  0.000000E+00  3.285655E-02  1.420799E-02 -1.810751E-18 -3.499329E-01  0.000000E+00
  2.627530E-02  3.643690E-02  5.000000E-01  2.654059E-02  3.697823E-02  0.000000E+00  3.156230E-02  1.655728E-02 -5.241962E-18 -2.123583E-01  0.000000E+00
  2.127350E-02  3.355041E-02  5.000000E-01  2.148830E-02  3.406260E-02  0.000000E+00  2.924152E-02  1.864999E-02 -6.418441E-18 -4.760907E-02  0.000000E+00
  1.685790E-02  3.044002E-02  5.000000E-01  1.702813E-02  3.092081E-02  0.000000E+00  2.594282E-02  2.012931E-02 -1.157437E-17  1.387592E-01  0.000000E+00
  1.301460E-02  2.714085E-02  5.000000E-01  1.314603E-02  2.758834E-02  0.000000E+00  2.192436E-02  2.070480E-02 -1.876185E-17  3.371538E-01  0.000000E+00
  9.730790E-03  2.369826E-02  5.000000E-01  9.829072E-03  2.411100E-02  0.000000E+00  1.758636E-02  2.030655E-02 -2.511004E-17  5.385164E-01  0.000000E+00
  6.996180E-03  2.016719E-02  5.000000E-01  7.066857E-03  2.054428E-02  0.000000E+00  1.333547E-02  1.891479E-02 -2.584950E-17  7.278315E-01  0.000000E+00
  4.781010E-03  1.663911E-02  5.000000E-01  4.829325E-03  1.698059E-02  0.000000E+00  9.485323E-03  1.662372E-02 -1.965522E-17  8.915002E-01  0.000000E+00
  3.054950E-03  1.320952E-02  5.000000E-01  3.085841E-03  1.351638E-02  0.000000E+00  6.194686E-03  1.364875E-02 -1.624439E-17  1.024939E+00  0.000000E+00
  1.789910E-03  9.973564E-03  5.000000E-01  1.808031E-03  1.024776E-02  0.000000E+00  3.552408E-03  1.011982E-02 -1.825761E-17  1.123535E+00  0.000000E+00
  9.331870E-04  7.040291E-03  5.000000E-01  9.426596E-04  7.284874E-03  0.000000E+00  1.620705E-03  6.118771E-03 -1.954462E-17  1.183567E+00  0.000000E+00
  4.085430E-04  4.518199E-03  5.000000E-01  4.127195E-04  4.737323E-03  0.000000E+00  3.811642E-04  1.735032E-03 -2.228282E-17  1.207881E+00  0.000000E+00
  1.354760E-04  2.494561E-03  5.000000E-01  1.368960E-04  2.693256E-03  0.000000E+00 -2.396861E-04 -2.994072E-03 -2.986600E-17  1.204190E+00  0.000000E+00
  2.683130E-05  1.021515E-03  5.000000E-01  2.715456E-05  1.205340E-03  0.000000E+00 -3.441438E-04 -8.061890E-03 -3.871155E-17  1.180839E+00  0.000000E+00
  1.320070E-06  1.276972E-04  5.000000E-01  1.385807E-06  3.024998E-04  0.000000E+00 -2.077760E-04 -1.298705E-02 -4.078239E-17  1.140479E+00  0.000000E+00
 -5.188750E-08 -1.717795E-04  5.000000E-01  0.000000E+00  0.000000E+00  0.000000E+00 -4.372898E-05 -1.611275E-02 -2.668517E-17  1.105513E+00  0.000000E+00