 Title = "ADflow Slice Data"
Variables =  "CoordinateX"  "CoordinateY"  "CoordinateZ"  "XoC"  "YoC"  "ZoC" "VelocityX" "VelocityY" "VelocityZ" "CoefPressure" "Mach" 
Zone T= "Slice_0001 None Absolute Regular z = 0.50000000"
 Nodes =          192  Elements=          184  ZONETYPE=FELINESEG
 DATAPACKING=POINT
  5.560760E-01 -1.893760E-02  5.000000E-01  5.616895E-01 -1.895526E-02  0.000000E+00  1.506668E-02  1.097764E-03  9.982736E-19 -1.687481E-01  0.000000E+00
  5.770550E-01 -1.737433E-02  5.000000E-01  5.828802E-01 -1.737621E-02  0.000000E+00  1.470092E-02  1.131598E-03  8.696981E-19 -1.386263E-01  0.000000E+00
  5.977760E-01 -1.573241E-02  5.000000E-01  6.038104E-01 -1.571771E-02  0.000000E+00  1.434299E-02  1.180737E-03  4.945721E-19 -1.169916E-01  0.000000E+00
  6.181820E-01 -1.398905E-02  5.000000E-01  6.244224E-01 -1.395676E-02  0.000000E+00  1.385866E-02  1.236224E-03  1.254863E-19 -9.827692E-02  0.000000E+00
  6.382180E-01 -1.212083E-02  5.000000E-01  6.446607E-01 -1.206967E-02  0.000000E+00  1.317199E-02  1.283544E-03 -9.934291E-19 -7.590176E-02  0.000000E+00
  6.578350E-01 -1.011753E-02  5.000000E-01  6.644757E-01 -1.004615E-02  0.000000E+00  1.228020E-02  1.306084E-03 -7.104975E-19 -4.560523E-02  0.000000E+00
  6.769910E-01 -7.989248E-03  5.000000E-01  6.838251E-01 -7.896383E-03  0.000000E+00  1.122947E-02  1.293419E-03  3.746540E-19 -7.222114E-03  0.000000E+00
  6.956490E-01 -5.755950E-03  5.000000E-01  7.026714E-01 -5.640541E-03  0.000000E+00  1.008167E-02  1.242133E-03 -4.508063E-20  3.650939E-02  0.000000E+00
  7.137810E-01 -3.451393E-03  5.000000E-01  7.209864E-01 -3.312720E-03  0.000000E+00  8.894042E-03  1.153344E-03 -7.318154E-19  8.239585E-02  0.000000E+00
  7.313660E-01 -1.120534E-03  5.000000E-01  7.387490E-01 -9.583321E-04  0.000000E+00  7.709382E-03  1.035030E-03 -4.243821E-19  1.278397E-01  0.000000E+00
  7.483850E-01  1.196871E-03  5.000000E-01  7.559398E-01  1.382467E-03  0.000000E+00  6.562907E-03  9.013629E-04 -1.096890E-18  1.711218E-01  0.000000E+00
  7.648220E-01  3.475077E-03  5.000000E-01  7.725427E-01  3.683670E-03  0.000000E+00  5.499686E-03  7.667220E-04 -1.842411E-18  2.113336E-01  0.000000E+00
  7.806630E-01  5.696457E-03  5.000000E-01  7.885436E-01  5.927475E-03  0.000000E+00  4.589081E-03  6.367781E-04 -2.707095E-19  2.488121E-01  0.000000E+00
  7.958970E-01  7.793074E-03  5.000000E-01  8.039314E-01  8.045256E-03  0.000000E+00  3.923426E-03  5.111160E-04  3.283257E-19  2.851126E-01  0.000000E+00
  8.105170E-01  9.581366E-03  5.000000E-01  8.186990E-01  9.851601E-03  0.000000E+00  3.564964E-03  3.974638E-04 -1.673182E-18  3.175444E-01  0.000000E+00
  8.245160E-01  1.096965E-02  5.000000E-01  8.328393E-01  1.125390E-02  0.000000E+00  3.500687E-03  3.032587E-04 -2.249800E-18  3.407532E-01  0.000000E+00
  8.378940E-01  1.195596E-02  5.000000E-01  8.463523E-01  1.225017E-02  0.000000E+00  3.669604E-03  2.236647E-04 -8.456982E-19  3.542290E-01  0.000000E+00
  8.506490E-01  1.258281E-02  5.000000E-01  8.592361E-01  1.288334E-02  0.000000E+00  4.005827E-03  1.495372E-04 -1.676725E-19  3.609354E-01  0.000000E+00
  8.627850E-01  1.290875E-02  5.000000E-01  8.714946E-01  1.321257E-02  0.000000E+00  4.455206E-03  7.365427E-05  6.849848E-19  3.634032E-01  0.000000E+00
  8.743060E-01  1.299350E-02  5.000000E-01  8.831319E-01  1.329818E-02  0.000000E+00  4.974084E-03 -7.900346E-06  9.532603E-19  3.627744E-01  0.000000E+00
  8.852170E-01  1.288880E-02  5.000000E-01  8.941530E-01  1.319242E-02  0.000000E+00  5.528145E-03 -9.653147E-05  8.837975E-19  3.596869E-01  0.000000E+00
  8.955250E-01  1.263569E-02  5.000000E-01  9.045651E-01  1.293676E-02  0.000000E+00  6.093296E-03 -1.922488E-04  9.193501E-19  3.546646E-01  0.000000E+00
  9.052400E-01  1.226717E-02  5.000000E-01  9.143782E-01  1.256452E-02  0.000000E+00  6.656218E-03 -2.950322E-04  1.201272E-18  3.481150E-01  0.000000E+00
  9.143710E-01  1.180894E-02  5.000000E-01  9.236013E-01  1.210166E-02  0.000000E+00  7.215690E-03 -4.076702E-04  1.233438E-18  3.404696E-01  0.000000E+00
  9.143710E-01  1.180894E-02  5.000000E-01  9.236013E-01  1.210166E-02  0.000000E+00  7.215690E-03 -4.076702E-04  1.233438E-18  3.404696E-01  0.000000E+00
  9.229270E-01  1.127591E-02  5.000000E-01  9.322437E-01  1.156325E-02  0.000000E+00  7.782016E-03 -5.357045E-04  1.302231E-18  3.319678E-01  0.000000E+00
  9.309180E-01  1.067737E-02  5.000000E-01  9.403154E-01  1.095867E-02  0.000000E+00  8.372561E-03 -6.844172E-04  2.199427E-18  3.223573E-01  0.000000E+00
  9.383550E-01  1.002200E-02  5.000000E-01  9.478274E-01  1.029668E-02  0.000000E+00  9.008033E-03 -8.587539E-04  1.635866E-18  3.111743E-01  0.000000E+00
  9.452490E-01  9.318575E-03  5.000000E-01  9.547910E-01  9.586157E-03  0.000000E+00  9.712023E-03 -1.065477E-03  1.896828E-18  2.980349E-01  0.000000E+00
  9.516100E-01  8.575576E-03  5.000000E-01  9.612163E-01  8.835658E-03  0.000000E+00  1.051110E-02 -1.313230E-03  3.836859E-18  2.825407E-01  0.000000E+00
  9.574470E-01  7.802540E-03  5.000000E-01  9.671122E-01  8.054818E-03  0.000000E+00  1.143301E-02 -1.610913E-03  2.879881E-18  2.640915E-01  0.000000E+00
  9.627730E-01  7.010737E-03  5.000000E-01  9.724919E-01  7.255022E-03  0.000000E+00  1.250602E-02 -1.968070E-03 -9.601962E-18  2.420014E-01  0.000000E+00
  9.675950E-01  6.213627E-03  5.000000E-01  9.773626E-01  6.449866E-03  0.000000E+00  1.376135E-02 -2.394285E-03 -3.608655E-17  2.155507E-01  0.000000E+00
  9.719240E-01  5.426342E-03  5.000000E-01  9.817353E-01  5.654633E-03  0.000000E+00  1.523961E-02 -2.899868E-03 -3.825188E-17  1.839121E-01  0.000000E+00
  9.757700E-01  4.665318E-03  5.000000E-01  9.856201E-01  4.885927E-03  0.000000E+00  1.700451E-02 -3.501263E-03  7.783860E-17  1.462548E-01  0.000000E+00
  9.791410E-01  3.947102E-03  5.000000E-01  9.890252E-01  4.160461E-03  0.000000E+00  1.915563E-02 -4.224034E-03  3.549001E-16  1.016787E-01  0.000000E+00
  9.820450E-01  3.287616E-03  5.000000E-01  9.919585E-01  3.494317E-03  0.000000E+00  2.181140E-02 -5.099635E-03  4.645917E-16  4.884000E-02  0.000000E+00
  9.844890E-01  2.701643E-03  5.000000E-01  9.944272E-01  2.902429E-03  0.000000E+00  2.503623E-02 -6.152448E-03 -6.651189E-16 -1.396836E-02  0.000000E+00
  9.864800E-01  2.202509E-03  5.000000E-01  9.964383E-01  2.398257E-03  0.000000E+00  2.875883E-02 -7.337945E-03 -4.156066E-15 -8.719392E-02  0.000000E+00
  9.880230E-01  1.801949E-03  5.000000E-01  9.979968E-01  1.993653E-03  0.000000E+00  3.246642E-02 -8.457872E-03 -7.080784E-15 -1.778108E-01  0.000000E+00
  9.891220E-01  1.509215E-03  5.000000E-01  9.991069E-01  1.697963E-03  0.000000E+00  3.593981E-02 -9.743329E-03  5.979285E-15 -2.866504E-01  0.000000E+00
  9.897810E-01  1.330857E-03  5.000000E-01  9.997726E-01  1.517805E-03  0.000000E+00  5.277793E-02 -1.246255E-02  5.765054E-14 -3.054822E-01  0.000000E+00
  9.900000E-01  1.270983E-03  5.000000E-01  9.999938E-01  1.457327E-03  0.000000E+00  3.650462E-02 -2.271850E-03  6.012943E-14 -6.802924E-01  0.000000E+00
  9.900000E-01  1.680485E-03  5.000000E-01  9.999938E-01  1.870963E-03  0.000000E+00  2.127856E-03 -7.784871E-03  3.964012E-14 -9.797267E-01  0.000000E+00
  9.900000E-01  2.089988E-03  5.000000E-01  9.999938E-01  2.284599E-03  0.000000E+00 -5.416361E-04 -2.193287E-02  6.921472E-14 -8.244972E-01  0.000000E+00
  9.900000E-01  2.499490E-03  5.000000E-01  9.999938E-01  2.698236E-03  0.000000E+00 -1.402065E-04 -1.348713E-02  9.485533E-14 -7.968308E-01  0.000000E+00
  9.900000E-01  2.908978E-03  5.000000E-01  9.999938E-01  3.111857E-03  0.000000E+00  3.202179E-04 -8.314566E-03  1.140016E-13 -8.268137E-01  0.000000E+00
  9.900000E-01  3.318481E-03  5.000000E-01  9.999938E-01  3.525494E-03  0.000000E+00  4.471765E-03 -6.759656E-03  1.281286E-13 -7.915261E-01  0.000000E+00
  9.900000E-01  3.318481E-03  5.000000E-01  9.999938E-01  3.525494E-03  0.000000E+00  4.471765E-03 -6.759656E-03  1.281286E-13 -7.915261E-01  0.000000E+00
  9.897980E-01  3.422621E-03  5.000000E-01  9.997897E-01  3.630685E-03  0.000000E+00  5.440613E-03 -3.343295E-03  1.202703E-13 -7.432822E-01  0.000000E+00
  9.891900E-01  3.735038E-03  5.000000E-01  9.991756E-01  3.946256E-03  0.000000E+00  1.129924E-03 -5.171585E-04  8.522580E-14 -7.513374E-01  0.000000E+00
  9.881780E-01  4.255045E-03  5.000000E-01  9.981534E-01  4.471513E-03  0.000000E+00 -1.264431E-03  6.523022E-04  4.670872E-14 -7.584257E-01  0.000000E+00
  9.867570E-01  4.981341E-03  5.000000E-01  9.967180E-01  5.205140E-03  0.000000E+00 -2.628790E-03  1.328536E-03  1.895032E-14 -7.652819E-01  0.000000E+00
  9.849260E-01  5.910408E-03  5.000000E-01  9.948686E-01  6.143585E-03  0.000000E+00 -3.237598E-03  1.632637E-03  4.467605E-15 -7.750929E-01  0.000000E+00
  9.826810E-01  7.035760E-03  5.000000E-01  9.926009E-01  7.280297E-03  0.000000E+00 -3.243800E-03  1.615541E-03 -7.436791E-16 -7.842844E-01  0.000000E+00
  9.800160E-01  8.347653E-03  5.000000E-01  9.899090E-01  8.605434E-03  0.000000E+00 -2.935704E-03  1.430730E-03 -1.489528E-15 -7.899020E-01  0.000000E+00
  9.769240E-01  9.832010E-03  5.000000E-01  9.867858E-01  1.010478E-02  0.000000E+00 -2.610740E-03  1.233266E-03 -9.045521E-16 -7.920829E-01  0.000000E+00
  9.733970E-01  1.146769E-02  5.000000E-01  9.832232E-01  1.175696E-02  0.000000E+00 -2.455795E-03  1.111470E-03 -3.294333E-16 -7.928307E-01  0.000000E+00
  9.694240E-01  1.322818E-02  5.000000E-01  9.792101E-01  1.353523E-02  0.000000E+00 -2.529763E-03  1.089188E-03 -4.971337E-17 -7.940691E-01  0.000000E+00
  9.649940E-01  1.508677E-02  5.000000E-01  9.747354E-01  1.541258E-02  0.000000E+00 -2.829522E-03  1.159253E-03  2.710157E-17 -7.954672E-01  0.000000E+00
  9.600960E-01  1.702324E-02  5.000000E-01  9.697879E-01  1.736860E-02  0.000000E+00 -3.346786E-03  1.292011E-03  2.550240E-17 -7.959437E-01  0.000000E+00
  9.547180E-01  1.901744E-02  5.000000E-01  9.643556E-01  1.938292E-02  0.000000E+00 -3.940340E-03  1.402984E-03  1.166725E-17 -8.035810E-01  0.000000E+00
  9.488510E-01  2.104995E-02  5.000000E-01  9.584294E-01  2.143596E-02  0.000000E+00 -4.028177E-03  1.313527E-03  4.623870E-18 -8.419315E-01  0.000000E+00
  9.424820E-01  2.310555E-02  5.000000E-01  9.519961E-01  2.351230E-02  0.000000E+00 -2.449913E-03  7.495220E-04  4.889979E-18 -9.293750E-01  0.000000E+00
  9.356020E-01  2.517371E-02  5.000000E-01  9.450467E-01  2.560135E-02  0.000000E+00  2.059163E-03 -5.489513E-04  1.121967E-17 -1.046599E+00  0.000000E+00
  9.282010E-01  2.724828E-02  5.000000E-01  9.375709E-01  2.769686E-02  0.000000E+00  9.429191E-03 -2.468733E-03  2.276670E-17 -1.143819E+00  0.000000E+00
  9.202710E-01  2.932412E-02  5.000000E-01  9.295609E-01  2.979366E-02  0.000000E+00  1.718339E-02 -4.284726E-03  3.461183E-17 -1.187472E+00  0.000000E+00
  9.118010E-01  3.138904E-02  5.000000E-01  9.210054E-01  3.187941E-02  0.000000E+00  2.230657E-02 -5.230272E-03  3.820031E-17 -1.183682E+00  0.000000E+00
  9.027810E-01  3.342695E-02  5.000000E-01  9.118943E-01  3.393790E-02  0.000000E+00  2.407576E-02 -5.237463E-03  3.242786E-17 -1.156477E+00  0.000000E+00
  8.932000E-01  3.542210E-02  5.000000E-01  9.022166E-01  3.595319E-02  0.000000E+00  2.386908E-02 -4.767149E-03  2.447305E-17 -1.122408E+00  0.000000E+00
  8.830490E-01  3.735617E-02  5.000000E-01  8.919631E-01  3.790678E-02  0.000000E+00  2.317452E-02 -4.211357E-03  1.882794E-17 -1.086977E+00  0.000000E+00
  8.723190E-01  3.920820E-02  5.000000E-01  8.811248E-01  3.977750E-02  0.000000E+00  2.263998E-02 -3.704829E-03  1.475772E-17 -1.050857E+00  0.000000E+00
  8.723190E-01  3.920820E-02  5.000000E-01  8.811248E-01  3.977750E-02  0.000000E+00  2.263998E-02 -3.704829E-03  1.475772E-17 -1.050857E+00  0.000000E+00
  8.610010E-01  4.095746E-02  5.000000E-01  8.696926E-01  4.154442E-02  0.000000E+00  2.229217E-02 -3.245768E-03  1.238668E-17 -1.013816E+00  0.000000E+00
  8.490890E-01  4.258470E-02  5.000000E-01  8.576603E-01  4.318809E-02  0.000000E+00  2.197098E-02 -2.808710E-03  1.136893E-17 -9.759351E-01  0.000000E+00
  8.365770E-01  4.407407E-02  5.000000E-01  8.450220E-01  4.469250E-02  0.000000E+00  2.155775E-02 -2.389217E-03  1.034336E-17 -9.381676E-01  0.000000E+00
  8.234620E-01  4.541921E-02  5.000000E-01  8.317746E-01  4.605122E-02  0.000000E+00  2.102407E-02 -2.006561E-03  9.854685E-18 -9.027735E-01  0.000000E+00
  8.097400E-01  4.662957E-02  5.000000E-01  8.179141E-01  4.727379E-02  0.000000E+00  2.040436E-02 -1.695118E-03  9.748878E-18 -8.736133E-01  0.000000E+00
  7.954150E-01  4.774231E-02  5.000000E-01  8.034445E-01  4.839777E-02  0.000000E+00  1.976459E-02 -1.496355E-03  1.001494E-17 -8.556755E-01  0.000000E+00
  7.804870E-01  4.883597E-02  5.000000E-01  7.883658E-01  4.950247E-02  0.000000E+00  1.920867E-02 -1.437533E-03  8.067399E-18 -8.524161E-01  0.000000E+00
  7.649630E-01  5.001895E-02  5.000000E-01  7.726851E-01  5.069739E-02  0.000000E+00  1.889608E-02 -1.490461E-03  4.727743E-18 -8.614454E-01  0.000000E+00
  7.488530E-01  5.133474E-02  5.000000E-01  7.564125E-01  5.202646E-02  0.000000E+00  1.892332E-02 -1.603525E-03  2.133229E-18 -8.770771E-01  0.000000E+00
  7.321700E-01  5.280020E-02  5.000000E-01  7.395611E-01  5.350671E-02  0.000000E+00  1.923322E-02 -1.751693E-03 -2.197541E-18 -8.953440E-01  0.000000E+00
  7.149290E-01  5.442506E-02  5.000000E-01  7.221460E-01  5.514798E-02  0.000000E+00  1.970428E-02 -1.916476E-03 -8.059671E-18 -9.134400E-01  0.000000E+00
  6.971500E-01  5.620624E-02  5.000000E-01  7.041876E-01  5.694714E-02  0.000000E+00  2.023589E-02 -2.072901E-03 -1.382484E-17 -9.287773E-01  0.000000E+00
  6.788570E-01  5.812100E-02  5.000000E-01  6.857099E-01  5.888123E-02  0.000000E+00  2.077581E-02 -2.189628E-03 -1.812766E-17 -9.387553E-01  0.000000E+00
  6.600760E-01  6.011625E-02  5.000000E-01  6.667393E-01  6.089661E-02  0.000000E+00  2.129318E-02 -2.239100E-03 -1.919602E-17 -9.415778E-01  0.000000E+00
  6.408370E-01  6.212046E-02  5.000000E-01  6.473061E-01  6.292106E-02  0.000000E+00  2.173966E-02 -2.218874E-03 -2.006885E-17 -9.377168E-01  0.000000E+00
  6.211780E-01  6.408565E-02  5.000000E-01  6.274486E-01  6.490609E-02  0.000000E+00  2.208406E-02 -2.143454E-03 -2.115805E-17 -9.288696E-01  0.000000E+00
  6.011430E-01  6.597244E-02  5.000000E-01  6.072114E-01  6.681192E-02  0.000000E+00  2.234358E-02 -2.024234E-03 -1.979782E-17 -9.162491E-01  0.000000E+00
  5.807790E-01  6.774482E-02  5.000000E-01  5.866418E-01  6.860220E-02  0.000000E+00  2.254817E-02 -1.872481E-03 -1.640301E-17 -9.008186E-01  0.000000E+00
  5.601410E-01  6.937681E-02  5.000000E-01  5.657955E-01  7.025066E-02  0.000000E+00  2.272373E-02 -1.697059E-03 -1.395624E-17 -8.832808E-01  0.000000E+00
  5.392850E-01  7.084371E-02  5.000000E-01  5.447290E-01  7.173236E-02  0.000000E+00  2.288460E-02 -1.504741E-03 -1.216570E-17 -8.642654E-01  0.000000E+00
  5.182680E-01  7.212963E-02  5.000000E-01  5.234998E-01  7.303127E-02  0.000000E+00  2.303006E-02 -1.306329E-03 -1.020435E-17 -8.447399E-01  0.000000E+00
  4.971500E-01  7.323317E-02  5.000000E-01  5.021686E-01  7.414594E-02  0.000000E+00  2.316694E-02 -1.108899E-03 -9.061016E-18 -8.253804E-01  0.000000E+00
  4.759900E-01  7.415343E-02  5.000000E-01  4.807950E-01  7.507550E-02  0.000000E+00  2.331124E-02 -9.125399E-04 -8.187448E-18 -8.063044E-01  0.000000E+00
  2.733630E-06 -4.855501E-04  5.000000E-01  2.813636E-06 -3.169378E-04  0.000000E+00  4.686340E-04 -1.840562E-02 -5.345786E-20  1.096920E+00  0.000000E+00
  4.455870E-05 -1.426490E-03  5.000000E-01  4.506092E-05 -1.267377E-03  0.000000E+00  2.258758E-03 -2.190592E-02  2.848009E-17  1.067590E+00  0.000000E+00
  2.731490E-04 -2.958890E-03  5.000000E-01  2.759588E-04 -2.815245E-03  0.000000E+00  6.592995E-03 -2.486032E-02  4.331033E-17  9.467741E-01  0.000000E+00
  9.950900E-04 -4.913582E-03  5.000000E-01  1.005188E-03 -4.789669E-03  0.000000E+00  1.277735E-02 -2.521991E-02  4.355728E-17  7.369534E-01  0.000000E+00
  2.349870E-03 -6.988420E-03  5.000000E-01  2.373644E-03 -6.885452E-03  0.000000E+00  1.846846E-02 -2.401696E-02  4.080497E-17  5.277907E-01  0.000000E+00
  4.254460E-03 -9.116603E-03  5.000000E-01  4.297460E-03 -9.035119E-03  0.000000E+00  2.308443E-02 -2.270170E-02  2.760718E-17  3.564123E-01  0.000000E+00
  6.687140E-03 -1.123952E-02  5.000000E-01  6.754697E-03 -1.117946E-02  0.000000E+00  2.708525E-02 -2.121574E-02  6.102012E-18  1.937177E-01  0.000000E+00
  9.634000E-03 -1.331962E-02  5.000000E-01  9.731305E-03 -1.328056E-02  0.000000E+00  3.034947E-02 -1.921531E-02 -6.626095E-18  2.840214E-02  0.000000E+00
  1.310530E-02 -1.528930E-02  5.000000E-01  1.323765E-02 -1.527013E-02  0.000000E+00  3.258113E-02 -1.656247E-02 -1.160512E-18 -1.355033E-01  0.000000E+00
  1.710810E-02 -1.709685E-02  5.000000E-01  1.728085E-02 -1.709593E-02  0.000000E+00  3.384672E-02 -1.378875E-02  2.368166E-17 -2.755975E-01  0.000000E+00
  2.163760E-02 -1.874286E-02  5.000000E-01  2.185608E-02 -1.875855E-02  0.000000E+00  3.453639E-02 -1.137172E-02  5.563790E-17 -3.825155E-01  0.000000E+00
  2.669190E-02 -2.023701E-02  5.000000E-01  2.696140E-02 -2.026778E-02  0.000000E+00  3.479525E-02 -9.238417E-03  7.684965E-17 -4.687354E-01  0.000000E+00
  3.228310E-02 -2.155515E-02  5.000000E-01  3.260904E-02 -2.159923E-02  0.000000E+00  3.458166E-02 -7.265356E-03  8.655822E-17 -5.439443E-01  0.000000E+00
  3.842170E-02 -2.268521E-02  5.000000E-01  3.880961E-02 -2.274070E-02  0.000000E+00  3.397871E-02 -5.528927E-03  8.948604E-17 -6.070995E-01  0.000000E+00
  4.511710E-02 -2.362797E-02  5.000000E-01  4.557260E-02 -2.369297E-02  0.000000E+00  3.311468E-02 -4.075082E-03  8.534860E-17 -6.569394E-01  0.000000E+00
  5.237940E-02 -2.438874E-02  5.000000E-01  5.290821E-02 -2.446143E-02  0.000000E+00  3.211180E-02 -2.908595E-03  7.719886E-17 -6.930577E-01  0.000000E+00
  6.021800E-02 -2.498323E-02  5.000000E-01  6.082593E-02 -2.506192E-02  0.000000E+00  3.108845E-02 -2.021591E-03  6.622863E-17 -7.154051E-01  0.000000E+00
  6.864140E-02 -2.543669E-02  5.000000E-01  6.933437E-02 -2.551995E-02  0.000000E+00  3.009540E-02 -1.369724E-03  5.461129E-17 -7.255942E-01  0.000000E+00
  7.765990E-02 -2.577015E-02  5.000000E-01  7.844390E-02 -2.585678E-02  0.000000E+00  2.911805E-02 -9.020414E-04  4.530416E-17 -7.254327E-01  0.000000E+00
  8.728340E-02 -2.600877E-02  5.000000E-01  8.816455E-02 -2.609781E-02  0.000000E+00  2.810638E-02 -5.915947E-04  3.695019E-17 -7.152905E-01  0.000000E+00
  9.752070E-02 -2.618475E-02  5.000000E-01  9.850519E-02 -2.627556E-02  0.000000E+00  2.693636E-02 -4.121011E-04  2.938119E-17 -6.951170E-01  0.000000E+00
  1.083810E-01 -2.633005E-02  5.000000E-01  1.094751E-01 -2.642233E-02  0.000000E+00  2.544972E-02 -3.367871E-04  2.393064E-17 -6.642706E-01  0.000000E+00
  1.198710E-01 -2.648044E-02  5.000000E-01  1.210811E-01 -2.657424E-02  0.000000E+00  2.359394E-02 -3.440957E-04  1.846131E-17 -6.209651E-01  0.000000E+00
  1.319970E-01 -2.667583E-02  5.000000E-01  1.333295E-01 -2.677160E-02  0.000000E+00  2.155275E-02 -4.081952E-04  1.334855E-17 -5.634702E-01  0.000000E+00
  1.319970E-01 -2.667583E-02  5.000000E-01  1.333295E-01 -2.677160E-02  0.000000E+00  2.155275E-02 -4.081952E-04  1.334855E-17 -5.634702E-01  0.000000E+00
  1.447640E-01 -2.695366E-02  5.000000E-01  1.462254E-01 -2.705224E-02  0.000000E+00  1.976278E-02 -5.070237E-04  8.699516E-18 -4.923544E-01  0.000000E+00
  1.581750E-01 -2.734837E-02  5.000000E-01  1.597718E-01 -2.745093E-02  0.000000E+00  1.872059E-02 -6.310558E-04  5.312022E-18 -4.139996E-01  0.000000E+00
  1.722290E-01 -2.788045E-02  5.000000E-01  1.739676E-01 -2.798838E-02  0.000000E+00  1.867811E-02 -7.696692E-04  4.039281E-18 -3.427263E-01  0.000000E+00
  1.869240E-01 -2.853688E-02  5.000000E-01  1.888110E-01 -2.865144E-02  0.000000E+00  1.948671E-02 -8.786108E-04  2.844990E-18 -2.969511E-01  0.000000E+00
  2.022540E-01 -2.924542E-02  5.000000E-01  2.042957E-01 -2.936713E-02  0.000000E+00  2.068566E-02 -8.552335E-04  1.934141E-18 -2.903611E-01  0.000000E+00
  2.182110E-01 -2.984354E-02  5.000000E-01  2.204138E-01 -2.997129E-02  0.000000E+00  2.178676E-02 -6.415859E-04  1.710547E-18 -3.195392E-01  0.000000E+00
  2.347810E-01 -3.020412E-02  5.000000E-01  2.371511E-01 -3.033550E-02  0.000000E+00  2.249635E-02 -3.207581E-04  1.319757E-18 -3.633120E-01  0.000000E+00
  2.519470E-01 -3.031693E-02  5.000000E-01  2.544904E-01 -3.044945E-02  0.000000E+00  2.264836E-02  3.318949E-06  8.885437E-19 -4.010906E-01  0.000000E+00
  2.696890E-01 -3.019036E-02  5.000000E-01  2.724115E-01 -3.032160E-02  0.000000E+00  2.218987E-02  2.779331E-04  8.541052E-19 -4.219873E-01  0.000000E+00
  2.879810E-01 -2.985522E-02  5.000000E-01  2.908881E-01 -2.998309E-02  0.000000E+00  2.128856E-02  4.636507E-04  1.492847E-18 -4.213109E-01  0.000000E+00
  3.067920E-01 -2.937232E-02  5.000000E-01  3.098890E-01 -2.949532E-02  0.000000E+00  2.029340E-02  5.411538E-04  1.225062E-18 -3.999512E-01  0.000000E+00
  3.260870E-01 -2.883231E-02  5.000000E-01  3.293788E-01 -2.894985E-02  0.000000E+00  1.956029E-02  5.212852E-04  6.308658E-19 -3.650032E-01  0.000000E+00
  3.458260E-01 -2.833395E-02  5.000000E-01  3.493171E-01 -2.844646E-02  0.000000E+00  1.923925E-02  4.648953E-04  3.573010E-19 -3.301820E-01  0.000000E+00
  3.659650E-01 -2.787702E-02  5.000000E-01  3.696594E-01 -2.798491E-02  0.000000E+00  1.925749E-02  4.406002E-04 -8.629006E-19 -3.082888E-01  0.000000E+00
  3.864540E-01 -2.741086E-02  5.000000E-01  3.903552E-01 -2.751405E-02  0.000000E+00  1.945034E-02  4.707814E-04 -2.310284E-19 -3.025750E-01  0.000000E+00
  4.072410E-01 -2.688072E-02  5.000000E-01  4.113520E-01 -2.697856E-02  0.000000E+00  1.961323E-02  5.537673E-04  6.655653E-19 -3.084989E-01  0.000000E+00
  4.282690E-01 -2.623115E-02  5.000000E-01  4.325923E-01 -2.632243E-02  0.000000E+00  1.953170E-02  6.812742E-04  5.845525E-19 -3.182746E-01  0.000000E+00
  4.494800E-01 -2.540501E-02  5.000000E-01  4.540174E-01 -2.548796E-02  0.000000E+00  1.907384E-02  8.250624E-04 -1.666059E-18 -3.227517E-01  0.000000E+00
  4.708130E-01 -2.438241E-02  5.000000E-01  4.755658E-01 -2.445503E-02  0.000000E+00  1.827262E-02  9.416255E-04 -3.068306E-18 -3.136311E-01  0.000000E+00
  4.922030E-01 -2.319310E-02  5.000000E-01  4.971717E-01 -2.325371E-02  0.000000E+00  1.729404E-02  1.013184E-03 -1.343096E-18 -2.881642E-01  0.000000E+00
  5.135860E-01 -2.186939E-02  5.000000E-01  5.187705E-01 -2.191664E-02  0.000000E+00  1.634485E-02  1.052488E-03 -8.289724E-19 -2.503438E-01  0.000000E+00
  5.348990E-01 -2.044068E-02  5.000000E-01  5.402987E-01 -2.047351E-02  0.000000E+00  1.558704E-02  1.075953E-03  1.483512E-20 -2.078112E-01  0.000000E+00
  5.560760E-01 -1.893760E-02  5.000000E-01  5.616895E-01 -1.895526E-02  0.000000E+00  1.506668E-02  1.097764E-03  9.982736E-19 -1.687481E-01  0.000000E+00
  4.759900E-01  7.415343E-02  5.000000E-01  4.807950E-01  7.507550E-02  0.000000E+00  2.331124E-02 -9.125399E-04 -8.187448E-18 -8.063044E-01  0.000000E+00
  4.548480E-01  7.488935E-02  5.000000E-01  4.594396E-01  7.581885E-02  0.000000E+00  2.347041E-02 -7.169234E-04 -7.502200E-18 -7.874733E-01  0.000000E+00
  4.337860E-01  7.544281E-02  5.000000E-01  4.381650E-01  7.637789E-02  0.000000E+00  2.364601E-02 -5.188196E-04 -6.670802E-18 -7.684754E-01  0.000000E+00
  4.128620E-01  7.581178E-02  5.000000E-01  4.170298E-01  7.675059E-02  0.000000E+00  2.383954E-02 -3.067370E-04 -6.971029E-18 -7.481846E-01  0.000000E+00
  3.921340E-01  7.598095E-02  5.000000E-01  3.960925E-01  7.692147E-02  0.000000E+00  2.403732E-02 -6.975553E-05 -8.339837E-18 -7.254309E-01  0.000000E+00
  3.716590E-01  7.593392E-02  5.000000E-01  3.754108E-01  7.687396E-02  0.000000E+00  2.420859E-02  1.955282E-04 -8.582510E-18 -6.995862E-01  0.000000E+00
  3.514890E-01  7.565572E-02  5.000000E-01  3.550372E-01  7.659295E-02  0.000000E+00  2.432277E-02  4.879210E-04 -7.278824E-18 -6.705192E-01  0.000000E+00
  3.316730E-01  7.513537E-02  5.000000E-01  3.350212E-01  7.606735E-02  0.000000E+00  2.435449E-02  7.998804E-04 -5.846189E-18 -6.388570E-01  0.000000E+00
  3.122580E-01  7.436999E-02  5.000000E-01  3.154102E-01  7.529424E-02  0.000000E+00  2.427930E-02  1.109888E-03 -4.796420E-18 -6.064947E-01  0.000000E+00
  2.932850E-01  7.338176E-02  5.000000E-01  2.962457E-01  7.429604E-02  0.000000E+00  2.409294E-02  1.395903E-03 -3.883104E-18 -5.756204E-01  0.000000E+00
  2.747930E-01  7.220040E-02  5.000000E-01  2.775670E-01  7.310276E-02  0.000000E+00  2.382382E-02  1.653006E-03 -3.359485E-18 -5.473429E-01  0.000000E+00
  2.568150E-01  7.085274E-02  5.000000E-01  2.594075E-01  7.174149E-02  0.000000E+00  2.351000E-02  1.886212E-03 -3.182281E-18 -5.219617E-01  0.000000E+00
  2.393810E-01  6.936149E-02  5.000000E-01  2.417975E-01  7.023518E-02  0.000000E+00  2.318567E-02  2.103418E-03 -3.127804E-18 -4.996982E-01  0.000000E+00
  2.225160E-01  6.774519E-02  5.000000E-01  2.247623E-01  6.860257E-02  0.000000E+00  2.287829E-02  2.310441E-03 -3.128762E-18 -4.817808E-01  0.000000E+00
  2.062420E-01  6.601817E-02  5.000000E-01  2.083240E-01  6.685812E-02  0.000000E+00  2.259076E-02  2.478933E-03 -2.963287E-18 -4.730594E-01  0.000000E+00
  1.905750E-01  6.423709E-02  5.000000E-01  1.924988E-01  6.505906E-02  0.000000E+00  2.234392E-02  2.552053E-03 -2.376301E-18 -4.808176E-01  0.000000E+00
  1.755290E-01  6.250550E-02  5.000000E-01  1.773010E-01  6.330999E-02  0.000000E+00  2.228483E-02  2.549492E-03 -3.442232E-19 -5.056866E-01  0.000000E+00
  1.611160E-01  6.086603E-02  5.000000E-01  1.627425E-01  6.165396E-02  0.000000E+00  2.259536E-02  2.552786E-03 -8.814959E-20 -5.406667E-01  0.000000E+00
  1.473410E-01  5.932153E-02  5.000000E-01  1.488284E-01  6.009388E-02  0.000000E+00  2.331301E-02  2.610489E-03 -1.184649E-18 -5.780877E-01  0.000000E+00
  1.342110E-01  5.785476E-02  5.000000E-01  1.355659E-01  5.861230E-02  0.000000E+00  2.432310E-02  2.737836E-03  3.443306E-19 -6.124297E-01  0.000000E+00
  1.217280E-01  5.644031E-02  5.000000E-01  1.229569E-01  5.718358E-02  0.000000E+00  2.544830E-02  2.934841E-03  2.703174E-18 -6.410238E-01  0.000000E+00
  1.098910E-01  5.505261E-02  5.000000E-01  1.110004E-01  5.578186E-02  0.000000E+00  2.655549E-02  3.207099E-03  4.741381E-18 -6.628691E-01  0.000000E+00
  9.869950E-02  5.366288E-02  5.000000E-01  9.969589E-02  5.437811E-02  0.000000E+00  2.759422E-02  3.569954E-03  7.707729E-18 -6.776016E-01  0.000000E+00
  8.814970E-02  5.224473E-02  5.000000E-01  8.903960E-02  5.294564E-02  0.000000E+00  2.857850E-02  4.049380E-03  1.137736E-17 -6.847595E-01  0.000000E+00
  8.814970E-02  5.224473E-02  5.000000E-01  8.903960E-02  5.294564E-02  0.000000E+00  2.857850E-02  4.049380E-03  1.137736E-17 -6.847595E-01  0.000000E+00
  7.823720E-02  5.077048E-02  5.000000E-01  7.902703E-02  5.145650E-02  0.000000E+00  2.954888E-02  4.688292E-03  1.607638E-17 -6.830536E-01  0.000000E+00
  6.895800E-02  4.920871E-02  5.000000E-01  6.965416E-02  4.987897E-02  0.000000E+00  3.051718E-02  5.528669E-03  1.945332E-17 -6.709797E-01  0.000000E+00
  6.030560E-02  4.753319E-02  5.000000E-01  6.091442E-02  4.818654E-02  0.000000E+00  3.146767E-02  6.624898E-03  2.008173E-17 -6.460708E-01  0.000000E+00
  5.227560E-02  4.571143E-02  5.000000E-01  5.280336E-02  4.634639E-02  0.000000E+00  3.234130E-02  8.038172E-03  1.853030E-17 -6.048132E-01  0.000000E+00
  4.486350E-02  4.371256E-02  5.000000E-01  4.531644E-02  4.432734E-02  0.000000E+00  3.299709E-02  9.789683E-03  1.490632E-17 -5.441768E-01  0.000000E+00
  3.806240E-02  4.151439E-02  5.000000E-01  3.844668E-02  4.210697E-02  0.000000E+00  3.325011E-02  1.187694E-02  8.367730E-18 -4.602826E-01  0.000000E+00
  3.186880E-02  3.909239E-02  5.000000E-01  3.219056E-02  3.966053E-02  0.000000E+00  3.285658E-02  1.420801E-02 -1.058171E-18 -3.499358E-01  0.000000E+00
  2.627530E-02  3.643695E-02  5.000000E-01  2.654059E-02  3.697829E-02  0.000000E+00  3.156233E-02  1.655730E-02 -6.059399E-18 -2.123608E-01  0.000000E+00
  2.127350E-02  3.355046E-02  5.000000E-01  2.148830E-02  3.406266E-02  0.000000E+00  2.924155E-02  1.865002E-02 -6.938123E-18 -4.761121E-02  0.000000E+00
  1.685790E-02  3.044007E-02  5.000000E-01  1.702813E-02  3.092087E-02  0.000000E+00  2.594284E-02  2.012934E-02 -1.039015E-17  1.387575E-01  0.000000E+00
  1.301460E-02  2.714090E-02  5.000000E-01  1.314603E-02  2.758839E-02  0.000000E+00  2.192437E-02  2.070483E-02 -1.731518E-17  3.371526E-01  0.000000E+00
  9.730790E-03  2.369830E-02  5.000000E-01  9.829072E-03  2.411104E-02  0.000000E+00  1.758636E-02  2.030658E-02 -2.494468E-17  5.385156E-01  0.000000E+00
  6.996180E-03  2.016722E-02  5.000000E-01  7.066857E-03  2.054432E-02  0.000000E+00  1.333546E-02  1.891481E-02 -2.635077E-17  7.278310E-01  0.000000E+00
  4.781010E-03  1.663914E-02  5.000000E-01  4.829325E-03  1.698063E-02  0.000000E+00  9.485314E-03  1.662373E-02 -2.002286E-17  8.914999E-01  0.000000E+00
  3.054950E-03  1.320955E-02  5.000000E-01  3.085841E-03  1.351641E-02  0.000000E+00  6.194678E-03  1.364876E-02 -1.626451E-17  1.024939E+00  0.000000E+00
  1.789910E-03  9.973584E-03  5.000000E-01  1.808031E-03  1.024778E-02  0.000000E+00  3.552404E-03  1.011982E-02 -1.708194E-17  1.123535E+00  0.000000E+00
  9.331870E-04  7.040305E-03  5.000000E-01  9.426596E-04  7.284889E-03  0.000000E+00  1.620704E-03  6.118782E-03 -1.898694E-17  1.183566E+00  0.000000E+00
  4.085430E-04  4.518209E-03  5.000000E-01  4.127195E-04  4.737332E-03  0.000000E+00  3.811665E-04  1.735051E-03 -2.142409E-17  1.207881E+00  0.000000E+00
  1.354760E-04  2.494566E-03  5.000000E-01  1.368960E-04  2.693261E-03  0.000000E+00 -2.396826E-04 -2.994041E-03 -2.697979E-17  1.204190E+00  0.000000E+00
  2.683130E-05  1.021517E-03  5.000000E-01  2.715456E-05  1.205342E-03  0.000000E+00 -3.441409E-04 -8.061843E-03 -3.638436E-17  1.180840E+00  0.000000E+00
  1.320070E-06  1.276976E-04  5.000000E-01  1.385807E-06  3.025005E-04  0.000000E+00 -2.077746E-04 -1.298698E-02 -4.014584E-17  1.140480E+00  0.000000E+00
 -5.188750E-08 -1.717798E-04  5.000000E-01  0.000000E+00  0.000000E+00  0.000000E+00 -4.372889E-05 -1.611268E-02 -2.714349E-17  1.105513E+00  0.000000E+00