 Title = "ADflow Slice Data"
Variables =  "CoordinateX"  "CoordinateY"  "CoordinateZ"  "XoC"  "YoC"  "ZoC" "VelocityX" "VelocityY" "VelocityZ" "CoefPressure" "Mach" 
Zone T= "Slice_0001 None Absolute Regular z = 0.50000000"
 Nodes =          192  Elements=          184  ZONETYPE=FELINESEG
 DATAPACKING=POINT
  5.560760E-01 -1.893740E-02  5.000000E-01  5.616895E-01 -1.895506E-02  0.000000E+00  1.506836E-02  1.097793E-03 -3.774091E-17 -1.687351E-01  0.000000E+00
  5.770550E-01 -1.737423E-02  5.000000E-01  5.828802E-01 -1.737610E-02  0.000000E+00  1.470264E-02  1.131668E-03  5.211082E-18 -1.386517E-01  0.000000E+00
  5.977760E-01 -1.573237E-02  5.000000E-01  6.038104E-01 -1.571767E-02  0.000000E+00  1.434445E-02  1.180824E-03  3.295550E-17 -1.170323E-01  0.000000E+00
  6.181820E-01 -1.398904E-02  5.000000E-01  6.244224E-01 -1.395674E-02  0.000000E+00  1.385977E-02  1.236310E-03  4.710523E-17 -9.831370E-02  0.000000E+00
  6.382180E-01 -1.212082E-02  5.000000E-01  6.446607E-01 -1.206966E-02  0.000000E+00  1.317276E-02  1.283619E-03  6.062504E-17 -7.592501E-02  0.000000E+00
  6.578350E-01 -1.011752E-02  5.000000E-01  6.644757E-01 -1.004614E-02  0.000000E+00  1.228070E-02  1.306143E-03  6.953595E-17 -4.561506E-02  0.000000E+00
  6.769910E-01 -7.989228E-03  5.000000E-01  6.838251E-01 -7.896363E-03  0.000000E+00  1.122982E-02  1.293463E-03  6.303743E-17 -7.224607E-03  0.000000E+00
  6.956490E-01 -5.755924E-03  5.000000E-01  7.026714E-01 -5.640515E-03  0.000000E+00  1.008193E-02  1.242167E-03  4.215497E-17  3.650782E-02  0.000000E+00
  7.137810E-01 -3.451364E-03  5.000000E-01  7.209864E-01 -3.312691E-03  0.000000E+00  8.894254E-03  1.153371E-03  2.038945E-17  8.239278E-02  0.000000E+00
  7.313660E-01 -1.120508E-03  5.000000E-01  7.387490E-01 -9.583055E-04  0.000000E+00  7.709562E-03  1.035052E-03  7.409747E-18  1.278366E-01  0.000000E+00
  7.483850E-01  1.196888E-03  5.000000E-01  7.559398E-01  1.382484E-03  0.000000E+00  6.563069E-03  9.013811E-04  1.661419E-18  1.711210E-01  0.000000E+00
  7.648220E-01  3.475077E-03  5.000000E-01  7.725427E-01  3.683670E-03  0.000000E+00  5.499847E-03  7.667379E-04 -5.055141E-18  2.113350E-01  0.000000E+00
  7.806630E-01  5.696432E-03  5.000000E-01  7.885436E-01  5.927450E-03  0.000000E+00  4.589251E-03  6.367931E-04 -1.529155E-17  2.488139E-01  0.000000E+00
  7.958970E-01  7.793018E-03  5.000000E-01  8.039314E-01  8.045199E-03  0.000000E+00  3.923611E-03  5.111306E-04 -1.379326E-17  2.851132E-01  0.000000E+00
  8.105170E-01  9.581277E-03  5.000000E-01  8.186990E-01  9.851510E-03  0.000000E+00  3.565162E-03  3.974772E-04 -5.648648E-19  3.175440E-01  0.000000E+00
  8.245160E-01  1.096953E-02  5.000000E-01  8.328393E-01  1.125377E-02  0.000000E+00  3.500898E-03  3.032696E-04  4.444266E-18  3.407524E-01  0.000000E+00
  8.378940E-01  1.195582E-02  5.000000E-01  8.463523E-01  1.225002E-02  0.000000E+00  3.669829E-03  2.236721E-04  1.724029E-18  3.542283E-01  0.000000E+00
  8.506490E-01  1.258264E-02  5.000000E-01  8.592361E-01  1.288317E-02  0.000000E+00  4.006066E-03  1.495405E-04  4.997275E-18  3.609346E-01  0.000000E+00
  8.627850E-01  1.290856E-02  5.000000E-01  8.714946E-01  1.321238E-02  0.000000E+00  4.455458E-03  7.365351E-05  1.415343E-17  3.634020E-01  0.000000E+00
  8.743060E-01  1.299330E-02  5.000000E-01  8.831319E-01  1.329798E-02  0.000000E+00  4.974345E-03 -7.904373E-06  2.055912E-17  3.627727E-01  0.000000E+00
  8.852170E-01  1.288860E-02  5.000000E-01  8.941530E-01  1.319222E-02  0.000000E+00  5.528411E-03 -9.653788E-05  2.179317E-17  3.596849E-01  0.000000E+00
  8.955250E-01  1.263549E-02  5.000000E-01  9.045651E-01  1.293655E-02  0.000000E+00  6.093564E-03 -1.922567E-04  1.998904E-17  3.546624E-01  0.000000E+00
  9.052400E-01  1.226697E-02  5.000000E-01  9.143782E-01  1.256432E-02  0.000000E+00  6.656481E-03 -2.950407E-04  2.251627E-17  3.481125E-01  0.000000E+00
  9.143710E-01  1.180874E-02  5.000000E-01  9.236013E-01  1.210146E-02  0.000000E+00  7.215944E-03 -4.076784E-04 -4.264932E-18  3.404669E-01  0.000000E+00
  9.143710E-01  1.180874E-02  5.000000E-01  9.236013E-01  1.210146E-02  0.000000E+00  7.215944E-03 -4.076784E-04 -4.264932E-18  3.404669E-01  0.000000E+00
  9.229270E-01  1.127572E-02  5.000000E-01  9.322437E-01  1.156306E-02  0.000000E+00  7.782259E-03 -5.357116E-04 -4.736106E-17  3.319649E-01  0.000000E+00
  9.309180E-01  1.067720E-02  5.000000E-01  9.403154E-01  1.095849E-02  0.000000E+00  8.372792E-03 -6.844226E-04 -1.019567E-16  3.223544E-01  0.000000E+00
  9.383550E-01  1.002183E-02  5.000000E-01  9.478274E-01  1.029651E-02  0.000000E+00  9.008251E-03 -8.587570E-04 -2.079782E-16  3.111714E-01  0.000000E+00
  9.452490E-01  9.318427E-03  5.000000E-01  9.547910E-01  9.586007E-03  0.000000E+00  9.712226E-03 -1.065477E-03 -3.407594E-16  2.980321E-01  0.000000E+00
  9.516100E-01  8.575443E-03  5.000000E-01  9.612163E-01  8.835523E-03  0.000000E+00  1.051129E-02 -1.313227E-03 -4.342530E-16  2.825380E-01  0.000000E+00
  9.574470E-01  7.802423E-03  5.000000E-01  9.671122E-01  8.054700E-03  0.000000E+00  1.143319E-02 -1.610906E-03 -3.550435E-16  2.640890E-01  0.000000E+00
  9.627730E-01  7.010635E-03  5.000000E-01  9.724919E-01  7.254919E-03  0.000000E+00  1.250618E-02 -1.968058E-03 -1.989762E-17  2.419990E-01  0.000000E+00
  9.675950E-01  6.213541E-03  5.000000E-01  9.773626E-01  6.449778E-03  0.000000E+00  1.376150E-02 -2.394268E-03  1.805541E-16  2.155485E-01  0.000000E+00
  9.719240E-01  5.426270E-03  5.000000E-01  9.817353E-01  5.654560E-03  0.000000E+00  1.523975E-02 -2.899843E-03 -1.251160E-15  1.839101E-01  0.000000E+00
  9.757700E-01  4.665260E-03  5.000000E-01  9.856201E-01  4.885868E-03  0.000000E+00  1.700464E-02 -3.501230E-03 -6.432472E-15  1.462529E-01  0.000000E+00
  9.791410E-01  3.947056E-03  5.000000E-01  9.890252E-01  4.160414E-03  0.000000E+00  1.915575E-02 -4.223991E-03 -1.351939E-14  1.016770E-01  0.000000E+00
  9.820450E-01  3.287581E-03  5.000000E-01  9.919585E-01  3.494282E-03  0.000000E+00  2.181152E-02 -5.099580E-03 -7.590261E-15  4.883836E-02  0.000000E+00
  9.844890E-01  2.701618E-03  5.000000E-01  9.944272E-01  2.902403E-03  0.000000E+00  2.503635E-02 -6.152379E-03  4.112917E-14 -1.396989E-02  0.000000E+00
  9.864800E-01  2.202491E-03  5.000000E-01  9.964383E-01  2.398238E-03  0.000000E+00  2.875894E-02 -7.337860E-03  1.471535E-13 -8.719537E-02  0.000000E+00
  9.880230E-01  1.801937E-03  5.000000E-01  9.979968E-01  1.993641E-03  0.000000E+00  3.246654E-02 -8.457775E-03  2.382313E-13 -1.778122E-01  0.000000E+00
  9.891220E-01  1.509207E-03  5.000000E-01  9.991069E-01  1.697956E-03  0.000000E+00  3.593998E-02 -9.743232E-03  7.457177E-14 -2.866517E-01  0.000000E+00
  9.897810E-01  1.330852E-03  5.000000E-01  9.997726E-01  1.517800E-03  0.000000E+00  5.277830E-02 -1.246244E-02 -5.618813E-13 -3.054837E-01  0.000000E+00
  9.900000E-01  1.270979E-03  5.000000E-01  9.999938E-01  1.457322E-03  0.000000E+00  3.650490E-02 -2.271760E-03 -6.202128E-13 -6.802941E-01  0.000000E+00
  9.900000E-01  1.680481E-03  5.000000E-01  9.999938E-01  1.870959E-03  0.000000E+00  2.127867E-03 -7.784870E-03  7.933623E-14 -9.797288E-01  0.000000E+00
  9.900000E-01  2.089984E-03  5.000000E-01  9.999938E-01  2.284595E-03  0.000000E+00 -5.416385E-04 -2.193295E-02  4.229709E-13 -8.244993E-01  0.000000E+00
  9.900000E-01  2.499486E-03  5.000000E-01  9.999938E-01  2.698231E-03  0.000000E+00 -1.402050E-04 -1.348727E-02  4.071450E-13 -7.968324E-01  0.000000E+00
  9.900000E-01  2.908974E-03  5.000000E-01  9.999938E-01  3.111853E-03  0.000000E+00  3.202166E-04 -8.314652E-03  2.946800E-13 -8.268146E-01  0.000000E+00
  9.900000E-01  3.318477E-03  5.000000E-01  9.999938E-01  3.525489E-03  0.000000E+00  4.471691E-03 -6.759606E-03  1.940827E-13 -7.915270E-01  0.000000E+00
  9.900000E-01  3.318477E-03  5.000000E-01  9.999938E-01  3.525489E-03  0.000000E+00  4.471691E-03 -6.759606E-03  1.940827E-13 -7.915270E-01  0.000000E+00
  9.897980E-01  3.422616E-03  5.000000E-01  9.997897E-01  3.630680E-03  0.000000E+00  5.440459E-03 -3.343189E-03  1.354761E-13 -7.432836E-01  0.000000E+00
  9.891900E-01  3.735031E-03  5.000000E-01  9.991756E-01  3.946248E-03  0.000000E+00  1.129751E-03 -5.170663E-04  9.312968E-14 -7.513390E-01  0.000000E+00
  9.881780E-01  4.255034E-03  5.000000E-01  9.981534E-01  4.471501E-03  0.000000E+00 -1.264595E-03  6.523816E-04  5.306294E-14 -7.584278E-01  0.000000E+00
  9.867570E-01  4.981324E-03  5.000000E-01  9.967180E-01  5.205122E-03  0.000000E+00 -2.628910E-03  1.328587E-03  2.342970E-14 -7.652846E-01  0.000000E+00
  9.849260E-01  5.910383E-03  5.000000E-01  9.948686E-01  6.143560E-03  0.000000E+00 -3.237655E-03  1.632652E-03  7.011204E-15 -7.750957E-01  0.000000E+00
  9.826810E-01  7.035725E-03  5.000000E-01  9.926009E-01  7.280262E-03  0.000000E+00 -3.243803E-03  1.615528E-03  3.091319E-16 -7.842871E-01  0.000000E+00
  9.800160E-01  8.347607E-03  5.000000E-01  9.899090E-01  8.605387E-03  0.000000E+00 -2.935680E-03  1.430706E-03 -1.316531E-15 -7.899043E-01  0.000000E+00
  9.769240E-01  9.831952E-03  5.000000E-01  9.867858E-01  1.010472E-02  0.000000E+00 -2.610723E-03  1.233248E-03 -1.105227E-15 -7.920849E-01  0.000000E+00
  9.733970E-01  1.146762E-02  5.000000E-01  9.832232E-01  1.175689E-02  0.000000E+00 -2.455812E-03  1.111468E-03 -6.184655E-16 -7.928326E-01  0.000000E+00
  9.694240E-01  1.322809E-02  5.000000E-01  9.792101E-01  1.353514E-02  0.000000E+00 -2.529826E-03  1.089206E-03 -3.134512E-16 -7.940712E-01  0.000000E+00
  9.649940E-01  1.508666E-02  5.000000E-01  9.747354E-01  1.541247E-02  0.000000E+00 -2.829641E-03  1.159293E-03 -1.675260E-16 -7.954689E-01  0.000000E+00
  9.600960E-01  1.702312E-02  5.000000E-01  9.697879E-01  1.736847E-02  0.000000E+00 -3.346963E-03  1.292066E-03 -9.987511E-17 -7.959450E-01  0.000000E+00
  9.547180E-01  1.901729E-02  5.000000E-01  9.643556E-01  1.938278E-02  0.000000E+00 -3.940514E-03  1.403027E-03 -1.074249E-16 -8.035853E-01  0.000000E+00
  9.488510E-01  2.104979E-02  5.000000E-01  9.584294E-01  2.143579E-02  0.000000E+00 -4.028145E-03  1.313500E-03 -1.610527E-16 -8.419451E-01  0.000000E+00
  9.424820E-01  2.310536E-02  5.000000E-01  9.519961E-01  2.351211E-02  0.000000E+00 -2.449351E-03  7.493471E-04 -1.577852E-16 -9.293993E-01  0.000000E+00
  9.356020E-01  2.517350E-02  5.000000E-01  9.450467E-01  2.560113E-02  0.000000E+00  2.060454E-03 -5.493066E-04 -6.111640E-17 -1.046625E+00  0.000000E+00
  9.282010E-01  2.724805E-02  5.000000E-01  9.375709E-01  2.769662E-02  0.000000E+00  9.430911E-03 -2.469173E-03  3.908700E-17 -1.143835E+00  0.000000E+00
  9.202710E-01  2.932387E-02  5.000000E-01  9.295609E-01  2.979340E-02  0.000000E+00  1.718476E-02 -4.285044E-03  1.253700E-16 -1.187477E+00  0.000000E+00
  9.118010E-01  3.138877E-02  5.000000E-01  9.210054E-01  3.187914E-02  0.000000E+00  2.230710E-02 -5.230360E-03  3.002491E-16 -1.183680E+00  0.000000E+00
  9.027810E-01  3.342666E-02  5.000000E-01  9.118943E-01  3.393761E-02  0.000000E+00  2.407567E-02 -5.237405E-03  4.599804E-16 -1.156472E+00  0.000000E+00
  8.932000E-01  3.542180E-02  5.000000E-01  9.022166E-01  3.595289E-02  0.000000E+00  2.386879E-02 -4.767066E-03  3.908038E-16 -1.122405E+00  0.000000E+00
  8.830490E-01  3.735587E-02  5.000000E-01  8.919631E-01  3.790648E-02  0.000000E+00  2.317428E-02 -4.211303E-03  1.533477E-16 -1.086975E+00  0.000000E+00
  8.723190E-01  3.920789E-02  5.000000E-01  8.811248E-01  3.977719E-02  0.000000E+00  2.263985E-02 -3.704812E-03 -5.953692E-17 -1.050856E+00  0.000000E+00
  8.723190E-01  3.920789E-02  5.000000E-01  8.811248E-01  3.977719E-02  0.000000E+00  2.263985E-02 -3.704812E-03 -5.953692E-17 -1.050856E+00  0.000000E+00
  8.610010E-01  4.095716E-02  5.000000E-01  8.696926E-01  4.154412E-02  0.000000E+00  2.229210E-02 -3.245778E-03 -1.583094E-16 -1.013817E+00  0.000000E+00
  8.490890E-01  4.258441E-02  5.000000E-01  8.576603E-01  4.318780E-02  0.000000E+00  2.197094E-02 -2.808742E-03 -1.669315E-16 -9.759374E-01  0.000000E+00
  8.365770E-01  4.407381E-02  5.000000E-01  8.450220E-01  4.469224E-02  0.000000E+00  2.155774E-02 -2.389270E-03 -1.404072E-16 -9.381718E-01  0.000000E+00
  8.234620E-01  4.541899E-02  5.000000E-01  8.317746E-01  4.605100E-02  0.000000E+00  2.102411E-02 -2.006633E-03 -9.172517E-17 -9.027797E-01  0.000000E+00
  8.097400E-01  4.662940E-02  5.000000E-01  8.179141E-01  4.727362E-02  0.000000E+00  2.040445E-02 -1.695203E-03 -2.241397E-17 -8.736211E-01  0.000000E+00
  7.954150E-01  4.774220E-02  5.000000E-01  8.034445E-01  4.839765E-02  0.000000E+00  1.976473E-02 -1.496445E-03  4.707385E-17 -8.556840E-01  0.000000E+00
  7.804870E-01  4.883592E-02  5.000000E-01  7.883658E-01  4.950242E-02  0.000000E+00  1.920885E-02 -1.437617E-03  9.299205E-17 -8.524240E-01  0.000000E+00
  7.649630E-01  5.001895E-02  5.000000E-01  7.726851E-01  5.069739E-02  0.000000E+00  1.889627E-02 -1.490531E-03  1.030911E-16 -8.614515E-01  0.000000E+00
  7.488530E-01  5.133478E-02  5.000000E-01  7.564125E-01  5.202650E-02  0.000000E+00  1.892348E-02 -1.603576E-03  8.199591E-17 -8.770809E-01  0.000000E+00
  7.321700E-01  5.280026E-02  5.000000E-01  7.395611E-01  5.350677E-02  0.000000E+00  1.923333E-02 -1.751723E-03  4.872110E-17 -8.953452E-01  0.000000E+00
  7.149290E-01  5.442513E-02  5.000000E-01  7.221460E-01  5.514805E-02  0.000000E+00  1.970434E-02 -1.916485E-03  1.910011E-17 -9.134390E-01  0.000000E+00
  6.971500E-01  5.620632E-02  5.000000E-01  7.041876E-01  5.694721E-02  0.000000E+00  2.023590E-02 -2.072893E-03  7.735244E-19 -9.287745E-01  0.000000E+00
  6.788570E-01  5.812106E-02  5.000000E-01  6.857099E-01  5.888129E-02  0.000000E+00  2.077579E-02 -2.189609E-03 -2.482218E-18 -9.387517E-01  0.000000E+00
  6.600760E-01  6.011629E-02  5.000000E-01  6.667393E-01  6.089666E-02  0.000000E+00  2.129315E-02 -2.239079E-03  2.748328E-18 -9.415741E-01  0.000000E+00
  6.408370E-01  6.212049E-02  5.000000E-01  6.473061E-01  6.292109E-02  0.000000E+00  2.173962E-02 -2.218858E-03  6.394450E-18 -9.377137E-01  0.000000E+00
  6.211780E-01  6.408567E-02  5.000000E-01  6.274486E-01  6.490611E-02  0.000000E+00  2.208403E-02 -2.143448E-03  5.882818E-18 -9.288675E-01  0.000000E+00
  6.011430E-01  6.597246E-02  5.000000E-01  6.072114E-01  6.681194E-02  0.000000E+00  2.234356E-02 -2.024239E-03  2.135276E-18 -9.162482E-01  0.000000E+00
  5.807790E-01  6.774485E-02  5.000000E-01  5.866418E-01  6.860223E-02  0.000000E+00  2.254816E-02 -1.872501E-03 -1.187634E-18 -9.008191E-01  0.000000E+00
  5.601410E-01  6.937687E-02  5.000000E-01  5.657955E-01  7.025072E-02  0.000000E+00  2.272374E-02 -1.697093E-03 -1.224282E-18 -8.832828E-01  0.000000E+00
  5.392850E-01  7.084380E-02  5.000000E-01  5.447290E-01  7.173246E-02  0.000000E+00  2.288462E-02 -1.504790E-03  1.232351E-18 -8.642688E-01  0.000000E+00
  5.182680E-01  7.212978E-02  5.000000E-01  5.234998E-01  7.303142E-02  0.000000E+00  2.303011E-02 -1.306385E-03  2.114614E-18 -8.447440E-01  0.000000E+00
  4.971500E-01  7.323336E-02  5.000000E-01  5.021686E-01  7.414614E-02  0.000000E+00  2.316703E-02 -1.108954E-03  2.100171E-18 -8.253842E-01  0.000000E+00
  4.759900E-01  7.415367E-02  5.000000E-01  4.807950E-01  7.507574E-02  0.000000E+00  2.331136E-02 -9.125824E-04  6.244520E-19 -8.063068E-01  0.000000E+00
  2.733630E-06 -4.855491E-04  5.000000E-01  2.813636E-06 -3.169370E-04  0.000000E+00  4.686375E-04 -1.840571E-02  1.277762E-14  1.096919E+00  0.000000E+00
  4.455870E-05 -1.426487E-03  5.000000E-01  4.506092E-05 -1.267374E-03  0.000000E+00  2.258773E-03 -2.190602E-02  1.307734E-14  1.067589E+00  0.000000E+00
  2.731490E-04 -2.958883E-03  5.000000E-01  2.759588E-04 -2.815238E-03  0.000000E+00  6.593031E-03 -2.486041E-02  1.235780E-14  9.467726E-01  0.000000E+00
  9.950900E-04 -4.913571E-03  5.000000E-01  1.005188E-03 -4.789658E-03  0.000000E+00  1.277740E-02 -2.521997E-02  1.290206E-14  7.369512E-01  0.000000E+00
  2.349870E-03 -6.988405E-03  5.000000E-01  2.373644E-03 -6.885437E-03  0.000000E+00  1.846851E-02 -2.401698E-02  1.329886E-14  5.277883E-01  0.000000E+00
  4.254460E-03 -9.116584E-03  5.000000E-01  4.297460E-03 -9.035099E-03  0.000000E+00  2.308448E-02 -2.270170E-02  1.173020E-14  3.564102E-01  0.000000E+00
  6.687140E-03 -1.123949E-02  5.000000E-01  6.754697E-03 -1.117944E-02  0.000000E+00  2.708527E-02 -2.121572E-02  8.725321E-15  1.937160E-01  0.000000E+00
  9.634000E-03 -1.331959E-02  5.000000E-01  9.731305E-03 -1.328054E-02  0.000000E+00  3.034948E-02 -1.921529E-02  5.684883E-15  2.840087E-02  0.000000E+00
  1.310530E-02 -1.528927E-02  5.000000E-01  1.323765E-02 -1.527010E-02  0.000000E+00  3.258113E-02 -1.656246E-02  3.518006E-15 -1.355042E-01  0.000000E+00
  1.710810E-02 -1.709682E-02  5.000000E-01  1.728085E-02 -1.709590E-02  0.000000E+00  3.384671E-02 -1.378873E-02  2.166297E-15 -2.755981E-01  0.000000E+00
  2.163760E-02 -1.874283E-02  5.000000E-01  2.185608E-02 -1.875852E-02  0.000000E+00  3.453638E-02 -1.137171E-02  1.383459E-15 -3.825158E-01  0.000000E+00
  2.669190E-02 -2.023698E-02  5.000000E-01  2.696140E-02 -2.026775E-02  0.000000E+00  3.479523E-02 -9.238410E-03  9.933531E-16 -4.687357E-01  0.000000E+00
  3.228310E-02 -2.155512E-02  5.000000E-01  3.260904E-02 -2.159919E-02  0.000000E+00  3.458165E-02 -7.265352E-03  8.134009E-16 -5.439446E-01  0.000000E+00
  3.842170E-02 -2.268518E-02  5.000000E-01  3.880961E-02 -2.274066E-02  0.000000E+00  3.397871E-02 -5.528926E-03  6.969283E-16 -6.071000E-01  0.000000E+00
  4.511710E-02 -2.362794E-02  5.000000E-01  4.557260E-02 -2.369294E-02  0.000000E+00  3.311469E-02 -4.075082E-03  5.912679E-16 -6.569401E-01  0.000000E+00
  5.237940E-02 -2.438871E-02  5.000000E-01  5.290821E-02 -2.446139E-02  0.000000E+00  3.211183E-02 -2.908594E-03  4.895741E-16 -6.930589E-01  0.000000E+00
  6.021800E-02 -2.498320E-02  5.000000E-01  6.082593E-02 -2.506188E-02  0.000000E+00  3.108850E-02 -2.021587E-03  3.732496E-16 -7.154068E-01  0.000000E+00
  6.864140E-02 -2.543665E-02  5.000000E-01  6.933437E-02 -2.551991E-02  0.000000E+00  3.009546E-02 -1.369714E-03  2.402338E-16 -7.255965E-01  0.000000E+00
  7.765990E-02 -2.577011E-02  5.000000E-01  7.844390E-02 -2.585674E-02  0.000000E+00  2.911812E-02 -9.020262E-04  1.135093E-16 -7.254359E-01  0.000000E+00
  8.728340E-02 -2.600872E-02  5.000000E-01  8.816455E-02 -2.609776E-02  0.000000E+00  2.810647E-02 -5.915733E-04  1.416030E-17 -7.152944E-01  0.000000E+00
  9.752070E-02 -2.618469E-02  5.000000E-01  9.850519E-02 -2.627550E-02  0.000000E+00  2.693647E-02 -4.120733E-04 -5.055174E-17 -6.951219E-01  0.000000E+00
  1.083810E-01 -2.632998E-02  5.000000E-01  1.094751E-01 -2.642226E-02  0.000000E+00  2.544987E-02 -3.367535E-04 -8.676238E-17 -6.642768E-01  0.000000E+00
  1.198710E-01 -2.648035E-02  5.000000E-01  1.210811E-01 -2.657415E-02  0.000000E+00  2.359413E-02 -3.440579E-04 -1.107951E-16 -6.209734E-01  0.000000E+00
  1.319970E-01 -2.667572E-02  5.000000E-01  1.333295E-01 -2.677149E-02  0.000000E+00  2.155297E-02 -4.081555E-04 -1.109981E-16 -5.634816E-01  0.000000E+00
  1.319970E-01 -2.667572E-02  5.000000E-01  1.333295E-01 -2.677149E-02  0.000000E+00  2.155297E-02 -4.081555E-04 -1.109981E-16 -5.634816E-01  0.000000E+00
  1.447640E-01 -2.695353E-02  5.000000E-01  1.462254E-01 -2.705210E-02  0.000000E+00  1.976302E-02 -5.069841E-04 -1.283993E-16 -4.923697E-01  0.000000E+00
  1.581750E-01 -2.734820E-02  5.000000E-01  1.597718E-01 -2.745076E-02  0.000000E+00  1.872085E-02 -6.310174E-04 -1.777793E-16 -4.140189E-01  0.000000E+00
  1.722290E-01 -2.788024E-02  5.000000E-01  1.739676E-01 -2.798817E-02  0.000000E+00  1.867838E-02 -7.696328E-04 -2.333044E-16 -3.427484E-01  0.000000E+00
  1.869240E-01 -2.853664E-02  5.000000E-01  1.888110E-01 -2.865119E-02  0.000000E+00  1.948702E-02 -8.785790E-04 -3.056992E-16 -2.969743E-01  0.000000E+00
  2.022540E-01 -2.924515E-02  5.000000E-01  2.042957E-01 -2.936685E-02  0.000000E+00  2.068600E-02 -8.552120E-04 -3.805663E-16 -2.903836E-01  0.000000E+00
  2.182110E-01 -2.984324E-02  5.000000E-01  2.204138E-01 -2.997099E-02  0.000000E+00  2.178709E-02 -6.415805E-04 -4.464694E-16 -3.195600E-01  0.000000E+00
  2.347810E-01 -3.020382E-02  5.000000E-01  2.371511E-01 -3.033520E-02  0.000000E+00  2.249663E-02 -3.207698E-04 -4.777642E-16 -3.633317E-01  0.000000E+00
  2.519470E-01 -3.031664E-02  5.000000E-01  2.544904E-01 -3.044916E-02  0.000000E+00  2.264855E-02  3.294646E-06 -4.626356E-16 -4.011101E-01  0.000000E+00
  2.696890E-01 -3.019009E-02  5.000000E-01  2.724115E-01 -3.032134E-02  0.000000E+00  2.219002E-02  2.779074E-04 -4.181090E-16 -4.220081E-01  0.000000E+00
  2.879810E-01 -2.985498E-02  5.000000E-01  2.908881E-01 -2.998284E-02  0.000000E+00  2.128881E-02  4.636429E-04 -3.543433E-16 -4.213351E-01  0.000000E+00
  3.067920E-01 -2.937208E-02  5.000000E-01  3.098890E-01 -2.949507E-02  0.000000E+00  2.029387E-02  5.411863E-04 -2.765890E-16 -3.999824E-01  0.000000E+00
  3.260870E-01 -2.883203E-02  5.000000E-01  3.293788E-01 -2.894957E-02  0.000000E+00  1.956095E-02  5.213725E-04 -2.015478E-16 -3.650454E-01  0.000000E+00
  3.458260E-01 -2.833357E-02  5.000000E-01  3.493171E-01 -2.844607E-02  0.000000E+00  1.923989E-02  4.650304E-04 -1.484828E-16 -3.302354E-01  0.000000E+00
  3.659650E-01 -2.787649E-02  5.000000E-01  3.696594E-01 -2.798438E-02  0.000000E+00  1.925773E-02  4.407542E-04 -1.348566E-16 -3.083465E-01  0.000000E+00
  3.864540E-01 -2.741016E-02  5.000000E-01  3.903552E-01 -2.751335E-02  0.000000E+00  1.944975E-02  4.709140E-04 -1.695271E-16 -3.026223E-01  0.000000E+00
  4.072410E-01 -2.687987E-02  5.000000E-01  4.113520E-01 -2.697770E-02  0.000000E+00  1.961154E-02  5.538319E-04 -2.386618E-16 -3.085162E-01  0.000000E+00
  4.282690E-01 -2.623021E-02  5.000000E-01  4.325923E-01 -2.632148E-02  0.000000E+00  1.952908E-02  6.812284E-04 -3.077799E-16 -3.182435E-01  0.000000E+00
  4.494800E-01 -2.540406E-02  5.000000E-01  4.540174E-01 -2.548699E-02  0.000000E+00  1.907091E-02  8.249030E-04 -3.429421E-16 -3.226650E-01  0.000000E+00
  4.708130E-01 -2.438154E-02  5.000000E-01  4.755658E-01 -2.445415E-02  0.000000E+00  1.827024E-02  9.414092E-04 -3.235276E-16 -3.135019E-01  0.000000E+00
  4.922030E-01 -2.319238E-02  5.000000E-01  4.971717E-01 -2.325299E-02  0.000000E+00  1.729285E-02  1.012990E-03 -2.580497E-16 -2.880234E-01  0.000000E+00
  5.135860E-01 -2.186886E-02  5.000000E-01  5.187705E-01 -2.191611E-02  0.000000E+00  1.634502E-02  1.052365E-03 -1.736134E-16 -2.502276E-01  0.000000E+00
  5.348990E-01 -2.044033E-02  5.000000E-01  5.402987E-01 -2.047315E-02  0.000000E+00  1.558823E-02  1.075914E-03 -9.529992E-17 -2.077446E-01  0.000000E+00
  5.560760E-01 -1.893740E-02  5.000000E-01  5.616895E-01 -1.895506E-02  0.000000E+00  1.506836E-02  1.097793E-03 -3.774091E-17 -1.687351E-01  0.000000E+00
  4.759900E-01  7.415367E-02  5.000000E-01  4.807950E-01  7.507574E-02  0.000000E+00  2.331136E-02 -9.125824E-04  6.244520E-19 -8.063068E-01  0.000000E+00
  4.548480E-01  7.488961E-02  5.000000E-01  4.594396E-01  7.581911E-02  0.000000E+00  2.347056E-02 -7.169437E-04 -1.015971E-18 -7.874733E-01  0.000000E+00
  4.337860E-01  7.544307E-02  5.000000E-01  4.381650E-01  7.637816E-02  0.000000E+00  2.364616E-02 -5.188114E-04  1.694693E-19 -7.684722E-01  0.000000E+00
  4.128620E-01  7.581202E-02  5.000000E-01  4.170298E-01  7.675083E-02  0.000000E+00  2.383966E-02 -3.067034E-04  1.076431E-18 -7.481786E-01  0.000000E+00
  3.921340E-01  7.598115E-02  5.000000E-01  3.960925E-01  7.692167E-02  0.000000E+00  2.403739E-02 -6.970681E-05  1.163584E-18 -7.254230E-01  0.000000E+00
  3.716590E-01  7.593408E-02  5.000000E-01  3.754108E-01  7.687412E-02  0.000000E+00  2.420860E-02  1.955803E-04 -9.455905E-19 -6.995775E-01  0.000000E+00
  3.514890E-01  7.565583E-02  5.000000E-01  3.550372E-01  7.659307E-02  0.000000E+00  2.432272E-02  4.879647E-04 -3.841743E-18 -6.705111E-01  0.000000E+00
  3.316730E-01  7.513545E-02  5.000000E-01  3.350212E-01  7.606743E-02  0.000000E+00  2.435440E-02  7.999064E-04 -7.338640E-18 -6.388505E-01  0.000000E+00
  3.122580E-01  7.437005E-02  5.000000E-01  3.154102E-01  7.529431E-02  0.000000E+00  2.427921E-02  1.109895E-03 -1.331026E-17 -6.064902E-01  0.000000E+00
  2.932850E-01  7.338183E-02  5.000000E-01  2.962457E-01  7.429611E-02  0.000000E+00  2.409287E-02  1.395897E-03 -2.040327E-17 -5.756176E-01  0.000000E+00
  2.747930E-01  7.220047E-02  5.000000E-01  2.775670E-01  7.310283E-02  0.000000E+00  2.382380E-02  1.652997E-03 -2.893234E-17 -5.473410E-01  0.000000E+00
  2.568150E-01  7.085282E-02  5.000000E-01  2.594075E-01  7.174157E-02  0.000000E+00  2.351002E-02  1.886205E-03 -3.720832E-17 -5.219600E-01  0.000000E+00
  2.393810E-01  6.936157E-02  5.000000E-01  2.417975E-01  7.023527E-02  0.000000E+00  2.318572E-02  2.103418E-03 -4.029702E-17 -4.996959E-01  0.000000E+00
  2.225160E-01  6.774527E-02  5.000000E-01  2.247623E-01  6.860265E-02  0.000000E+00  2.287835E-02  2.310449E-03 -3.555045E-17 -4.817775E-01  0.000000E+00
  2.062420E-01  6.601825E-02  5.000000E-01  2.083240E-01  6.685820E-02  0.000000E+00  2.259082E-02  2.478948E-03 -2.401380E-17 -4.730549E-01  0.000000E+00
  1.905750E-01  6.423717E-02  5.000000E-01  1.924988E-01  6.505913E-02  0.000000E+00  2.234396E-02  2.552073E-03 -9.997060E-18 -4.808120E-01  0.000000E+00
  1.755290E-01  6.250556E-02  5.000000E-01  1.773010E-01  6.331005E-02  0.000000E+00  2.228485E-02  2.549512E-03  3.542827E-18 -5.056803E-01  0.000000E+00
  1.611160E-01  6.086607E-02  5.000000E-01  1.627425E-01  6.165401E-02  0.000000E+00  2.259535E-02  2.552806E-03  1.761366E-17 -5.406602E-01  0.000000E+00
  1.473410E-01  5.932156E-02  5.000000E-01  1.488284E-01  6.009391E-02  0.000000E+00  2.331297E-02  2.610508E-03  3.475097E-17 -5.780813E-01  0.000000E+00
  1.342110E-01  5.785478E-02  5.000000E-01  1.355659E-01  5.861232E-02  0.000000E+00  2.432305E-02  2.737856E-03  4.792396E-17 -6.124235E-01  0.000000E+00
  1.217280E-01  5.644032E-02  5.000000E-01  1.229569E-01  5.718358E-02  0.000000E+00  2.544826E-02  2.934861E-03  4.545265E-17 -6.410179E-01  0.000000E+00
  1.098910E-01  5.505260E-02  5.000000E-01  1.110004E-01  5.578185E-02  0.000000E+00  2.655545E-02  3.207120E-03  3.677337E-17 -6.628636E-01  0.000000E+00
  9.869950E-02  5.366287E-02  5.000000E-01  9.969589E-02  5.437809E-02  0.000000E+00  2.759419E-02  3.569976E-03  5.170812E-17 -6.775962E-01  0.000000E+00
  8.814970E-02  5.224471E-02  5.000000E-01  8.903960E-02  5.294561E-02  0.000000E+00  2.857847E-02  4.049402E-03  4.661301E-17 -6.847543E-01  0.000000E+00
  8.814970E-02  5.224471E-02  5.000000E-01  8.903960E-02  5.294561E-02  0.000000E+00  2.857847E-02  4.049402E-03  4.661301E-17 -6.847543E-01  0.000000E+00
  7.823720E-02  5.077045E-02  5.000000E-01  7.902703E-02  5.145647E-02  0.000000E+00  2.954886E-02  4.688315E-03 -2.062242E-17 -6.830486E-01  0.000000E+00
  6.895800E-02  4.920867E-02  5.000000E-01  6.965416E-02  4.987893E-02  0.000000E+00  3.051716E-02  5.528690E-03 -1.043785E-16 -6.709748E-01  0.000000E+00
  6.030560E-02  4.753314E-02  5.000000E-01  6.091442E-02  4.818649E-02  0.000000E+00  3.146765E-02  6.624917E-03 -1.595299E-16 -6.460660E-01  0.000000E+00
  5.227560E-02  4.571138E-02  5.000000E-01  5.280336E-02  4.634633E-02  0.000000E+00  3.234127E-02  8.038186E-03 -1.405016E-16 -6.048086E-01  0.000000E+00
  4.486350E-02  4.371250E-02  5.000000E-01  4.531644E-02  4.432728E-02  0.000000E+00  3.299706E-02  9.789691E-03 -1.359743E-17 -5.441725E-01  0.000000E+00
  3.806240E-02  4.151433E-02  5.000000E-01  3.844668E-02  4.210691E-02  0.000000E+00  3.325007E-02  1.187694E-02  2.138027E-16 -4.602784E-01  0.000000E+00
  3.186880E-02  3.909233E-02  5.000000E-01  3.219056E-02  3.966047E-02  0.000000E+00  3.285654E-02  1.420799E-02  5.239221E-16 -3.499320E-01  0.000000E+00
  2.627530E-02  3.643689E-02  5.000000E-01  2.654059E-02  3.697822E-02  0.000000E+00  3.156229E-02  1.655727E-02  9.000220E-16 -2.123574E-01  0.000000E+00
  2.127350E-02  3.355040E-02  5.000000E-01  2.148830E-02  3.406259E-02  0.000000E+00  2.924151E-02  1.864999E-02  1.268487E-15 -4.760834E-02  0.000000E+00
  1.685790E-02  3.044001E-02  5.000000E-01  1.702813E-02  3.092081E-02  0.000000E+00  2.594281E-02  2.012930E-02  1.510758E-15  1.387598E-01  0.000000E+00
  1.301460E-02  2.714084E-02  5.000000E-01  1.314603E-02  2.758833E-02  0.000000E+00  2.192436E-02  2.070479E-02  1.539547E-15  3.371543E-01  0.000000E+00
  9.730790E-03  2.369825E-02  5.000000E-01  9.829072E-03  2.411099E-02  0.000000E+00  1.758635E-02  2.030654E-02  1.358456E-15  5.385168E-01  0.000000E+00
  6.996180E-03  2.016718E-02  5.000000E-01  7.066857E-03  2.054428E-02  0.000000E+00  1.333546E-02  1.891478E-02  1.065879E-15  7.278319E-01  0.000000E+00
  4.781010E-03  1.663911E-02  5.000000E-01  4.829325E-03  1.698059E-02  0.000000E+00  9.485319E-03  1.662371E-02  7.660900E-16  8.915005E-01  0.000000E+00
  3.054950E-03  1.320952E-02  5.000000E-01  3.085841E-03  1.351638E-02  0.000000E+00  6.194683E-03  1.364874E-02  5.184837E-16  1.024940E+00  0.000000E+00
  1.789910E-03  9.973561E-03  5.000000E-01  1.808031E-03  1.024775E-02  0.000000E+00  3.552405E-03  1.011981E-02  3.531300E-16  1.123535E+00  0.000000E+00
  9.331870E-04  7.040289E-03  5.000000E-01  9.426596E-04  7.284872E-03  0.000000E+00  1.620702E-03  6.118758E-03  2.784567E-16  1.183567E+00  0.000000E+00
  4.085430E-04  4.518198E-03  5.000000E-01  4.127195E-04  4.737322E-03  0.000000E+00  3.811618E-04  1.735017E-03  2.859717E-16  1.207881E+00  0.000000E+00
  1.354760E-04  2.494560E-03  5.000000E-01  1.368960E-04  2.693255E-03  0.000000E+00 -2.396879E-04 -2.994089E-03  3.945271E-16  1.204190E+00  0.000000E+00
  2.683130E-05  1.021514E-03  5.000000E-01  2.715456E-05  1.205340E-03  0.000000E+00 -3.441448E-04 -8.061908E-03  1.228540E-15  1.180839E+00  0.000000E+00
  1.320070E-06  1.276971E-04  5.000000E-01  1.385807E-06  3.024998E-04  0.000000E+00 -2.077765E-04 -1.298707E-02  4.260081E-15  1.140479E+00  0.000000E+00
 -5.188750E-08 -1.717795E-04  5.000000E-01  0.000000E+00  0.000000E+00  0.000000E+00 -4.372915E-05 -1.611277E-02  9.215690E-15  1.105513E+00  0.000000E+00