 Title = "ADflow Slice Data"
Variables =  "CoordinateX"  "CoordinateY"  "CoordinateZ"  "XoC"  "YoC"  "ZoC" "VelocityX" "VelocityY" "VelocityZ" "CoefPressure" "Mach" 
Zone T= "Slice_0001 None Absolute Regular z = 0.50000000"
 Nodes =          192  Elements=          184  ZONETYPE=FELINESEG
 DATAPACKING=POINT
  5.560760E-01 -1.895359E-02  5.000000E-01  5.616895E-01 -1.897081E-02  0.000000E+00  1.404672E-02  1.034132E-03  1.024833E-18 -1.412591E-01  0.000000E+00
  5.770550E-01 -1.738015E-02  5.000000E-01  5.828803E-01 -1.738150E-02  0.000000E+00  1.399789E-02  1.086073E-03  1.993380E-18 -1.179806E-01  0.000000E+00
  5.977760E-01 -1.572322E-02  5.000000E-01  6.038104E-01 -1.570784E-02  0.000000E+00  1.387397E-02  1.155105E-03  2.402748E-18 -1.082378E-01  0.000000E+00
  6.181820E-01 -1.395153E-02  5.000000E-01  6.244224E-01 -1.391826E-02  0.000000E+00  1.349035E-02  1.227873E-03  1.554522E-18 -9.782124E-02  0.000000E+00
  6.382180E-01 -1.203328E-02  5.000000E-01  6.446607E-01 -1.198065E-02  0.000000E+00  1.277128E-02  1.285480E-03  7.356232E-19 -7.717457E-02  0.000000E+00
  6.578350E-01 -9.950027E-03  5.000000E-01  6.644757E-01 -9.876368E-03  0.000000E+00  1.175130E-02  1.307903E-03  1.373470E-18 -4.363108E-02  0.000000E+00
  6.769910E-01 -7.707725E-03  5.000000E-01  6.838251E-01 -7.611429E-03  0.000000E+00  1.054050E-02  1.281241E-03  1.353803E-18  3.516493E-04  0.000000E+00
  6.956490E-01 -5.345321E-03  5.000000E-01  7.026714E-01 -5.225178E-03  0.000000E+00  9.266176E-03  1.204209E-03  9.445565E-19  4.990400E-02  0.000000E+00
  7.137810E-01 -2.921638E-03  5.000000E-01  7.209865E-01 -2.777029E-03  0.000000E+00  8.027195E-03  1.088155E-03  1.584756E-18  1.000797E-01  0.000000E+00
  7.313660E-01 -5.020598E-04  5.000000E-01  7.387490E-01 -3.330254E-04  0.000000E+00  6.879139E-03  9.505389E-04  7.128248E-19  1.474100E-01  0.000000E+00
  7.483850E-01  1.858891E-03  5.000000E-01  7.559398E-01  2.051759E-03  0.000000E+00  5.848055E-03  8.095832E-04 -4.408195E-19  1.902249E-01  0.000000E+00
  7.648220E-01  4.126293E-03  5.000000E-01  7.725427E-01  4.342050E-03  0.000000E+00  4.955775E-03  6.791341E-04 -6.682422E-19  2.281546E-01  0.000000E+00
  7.806630E-01  6.278023E-03  5.000000E-01  7.885436E-01  6.515500E-03  0.000000E+00  4.240346E-03  5.625330E-04 -4.266118E-19  2.620848E-01  0.000000E+00
  7.958970E-01  8.251992E-03  5.000000E-01  8.039314E-01  8.509396E-03  0.000000E+00  3.761312E-03  4.553420E-04  9.547241E-20  2.938787E-01  0.000000E+00
  8.105170E-01  9.891392E-03  5.000000E-01  8.186990E-01  1.016535E-02  0.000000E+00  3.559821E-03  3.582287E-04 -8.074279E-19  3.216482E-01  0.000000E+00
  8.245160E-01  1.112663E-02  5.000000E-01  8.328393E-01  1.141305E-02  0.000000E+00  3.620276E-03  2.734605E-04 -1.603771E-18  3.410546E-01  0.000000E+00
  8.378940E-01  1.196899E-02  5.000000E-01  8.463524E-01  1.226391E-02  0.000000E+00  3.888839E-03  1.962993E-04 -2.173234E-19  3.516939E-01  0.000000E+00
  8.506490E-01  1.246814E-02  5.000000E-01  8.592361E-01  1.276811E-02  0.000000E+00  4.306843E-03  1.200518E-04  2.143271E-19  3.560639E-01  0.000000E+00
  8.627850E-01  1.268600E-02  5.000000E-01  8.714946E-01  1.298817E-02  0.000000E+00  4.823973E-03  4.011315E-05  1.317801E-19  3.563472E-01  0.000000E+00
  8.743060E-01  1.268337E-02  5.000000E-01  8.831319E-01  1.298551E-02  0.000000E+00  5.397922E-03 -4.540967E-05  4.917708E-19  3.536307E-01  0.000000E+00
  8.852170E-01  1.251170E-02  5.000000E-01  8.941531E-01  1.281211E-02  0.000000E+00  5.994701E-03 -1.366687E-04 -2.821100E-19  3.486267E-01  0.000000E+00
  8.955250E-01  1.221095E-02  5.000000E-01  9.045651E-01  1.250832E-02  0.000000E+00  6.590205E-03 -2.330042E-04 -7.069654E-19  3.419235E-01  0.000000E+00
  9.052400E-01  1.181253E-02  5.000000E-01  9.143782E-01  1.210588E-02  0.000000E+00  7.171183E-03 -3.340940E-04 -2.576302E-19  3.339634E-01  0.000000E+00
  9.143710E-01  1.134025E-02  5.000000E-01  9.236014E-01  1.162883E-02  0.000000E+00  7.737003E-03 -4.428238E-04  4.312206E-20  3.251984E-01  0.000000E+00
  9.143710E-01  1.134025E-02  5.000000E-01  9.236014E-01  1.162883E-02  0.000000E+00  7.737003E-03 -4.428238E-04  4.312206E-20  3.251984E-01  0.000000E+00
  9.229270E-01  1.080703E-02  5.000000E-01  9.322437E-01  1.109023E-02  0.000000E+00  8.299202E-03 -5.650272E-04  2.154272E-19  3.158732E-01  0.000000E+00
  9.309180E-01  1.022008E-02  5.000000E-01  9.403154E-01  1.049735E-02  0.000000E+00  8.876778E-03 -7.061284E-04  3.957206E-19  3.057179E-01  0.000000E+00
  9.383550E-01  9.585968E-03  5.000000E-01  9.478275E-01  9.856838E-03  0.000000E+00  9.492205E-03 -8.710567E-04 -1.067545E-18  2.942342E-01  0.000000E+00
  9.452490E-01  8.911409E-03  5.000000E-01  9.547911E-01  9.175470E-03  0.000000E+00  1.017083E-02 -1.066493E-03 -2.380838E-18  2.810041E-01  0.000000E+00
  9.516100E-01  8.202899E-03  5.000000E-01  9.612163E-01  8.459808E-03  0.000000E+00  1.094083E-02 -1.300908E-03 -1.532128E-18  2.655984E-01  0.000000E+00
  9.574470E-01  7.468127E-03  5.000000E-01  9.671122E-01  7.717618E-03  0.000000E+00  1.183123E-02 -1.582889E-03 -1.028399E-18  2.473874E-01  0.000000E+00
  9.627730E-01  6.716691E-03  5.000000E-01  9.724920E-01  6.958597E-03  0.000000E+00  1.287119E-02 -1.921568E-03 -1.046052E-18  2.256619E-01  0.000000E+00
  9.675950E-01  5.960530E-03  5.000000E-01  9.773627E-01  6.194802E-03  0.000000E+00  1.409242E-02 -2.326035E-03 -1.014231E-18  1.996859E-01  0.000000E+00
  9.719240E-01  5.213468E-03  5.000000E-01  9.817354E-01  5.440199E-03  0.000000E+00  1.553560E-02 -2.805935E-03  6.495601E-19  1.686274E-01  0.000000E+00
  9.757700E-01  4.490836E-03  5.000000E-01  9.856202E-01  4.710273E-03  0.000000E+00  1.726399E-02 -3.376754E-03  4.359022E-18  1.316667E-01  0.000000E+00
  9.791410E-01  3.808249E-03  5.000000E-01  9.890252E-01  4.020795E-03  0.000000E+00  1.937524E-02 -4.062380E-03  2.754917E-18  8.792673E-02  0.000000E+00
  9.820450E-01  3.180881E-03  5.000000E-01  9.919585E-01  3.387094E-03  0.000000E+00  2.198181E-02 -4.891375E-03 -2.430095E-17  3.610549E-02  0.000000E+00
  9.844890E-01  2.622920E-03  5.000000E-01  9.944272E-01  2.823500E-03  0.000000E+00  2.513460E-02 -5.884031E-03 -1.057340E-16 -2.541266E-02  0.000000E+00
  9.864800E-01  2.147243E-03  5.000000E-01  9.964383E-01  2.343021E-03  0.000000E+00  2.874138E-02 -6.991068E-03 -2.138055E-16 -9.688481E-02  0.000000E+00
  9.880230E-01  1.765242E-03  5.000000E-01  9.979969E-01  1.957164E-03  0.000000E+00  3.226364E-02 -8.012322E-03 -6.813316E-17 -1.850969E-01  0.000000E+00
  9.891220E-01  1.485922E-03  5.000000E-01  9.991070E-01  1.675025E-03  0.000000E+00  3.546776E-02 -9.185945E-03  1.124093E-15 -2.910160E-01  0.000000E+00
  9.897810E-01  1.315685E-03  5.000000E-01  9.997726E-01  1.503069E-03  0.000000E+00  5.217423E-02 -1.170013E-02  4.231924E-15 -3.049179E-01  0.000000E+00
  9.900000E-01  1.258522E-03  5.000000E-01  9.999938E-01  1.445329E-03  0.000000E+00  3.613180E-02 -1.869259E-03  1.112145E-14 -6.723274E-01  0.000000E+00
  9.900000E-01  1.667957E-03  5.000000E-01  9.999938E-01  1.858897E-03  0.000000E+00  2.047862E-03 -7.804921E-03  3.259958E-14 -9.663392E-01  0.000000E+00
  9.900000E-01  2.077392E-03  5.000000E-01  9.999938E-01  2.272465E-03  0.000000E+00 -5.344694E-04 -2.181780E-02  6.332630E-14 -8.102060E-01  0.000000E+00
  9.900000E-01  2.486826E-03  5.000000E-01  9.999938E-01  2.686033E-03  0.000000E+00 -1.352215E-04 -1.335273E-02  8.751062E-14 -7.832583E-01  0.000000E+00
  9.900000E-01  2.896246E-03  5.000000E-01  9.999938E-01  3.099585E-03  0.000000E+00  3.170577E-04 -8.209963E-03  1.044592E-13 -8.133843E-01  0.000000E+00
  9.900000E-01  3.305681E-03  5.000000E-01  9.999938E-01  3.513153E-03  0.000000E+00  4.404358E-03 -6.618344E-03  1.165429E-13 -7.779166E-01  0.000000E+00
  9.900000E-01  3.305681E-03  5.000000E-01  9.999938E-01  3.513153E-03  0.000000E+00  4.404358E-03 -6.618344E-03  1.165429E-13 -7.779166E-01  0.000000E+00
  9.897980E-01  3.407241E-03  5.000000E-01  9.997898E-01  3.615739E-03  0.000000E+00  5.324841E-03 -3.212470E-03  1.090757E-13 -7.297724E-01  0.000000E+00
  9.891900E-01  3.711905E-03  5.000000E-01  9.991757E-01  3.923479E-03  0.000000E+00  1.052173E-03 -4.640919E-04  7.726023E-14 -7.382383E-01  0.000000E+00
  9.881780E-01  4.219049E-03  5.000000E-01  9.981534E-01  4.435742E-03  0.000000E+00 -1.291072E-03  6.500830E-04  4.227837E-14 -7.455037E-01  0.000000E+00
  9.867570E-01  4.927376E-03  5.000000E-01  9.967181E-01  5.151219E-03  0.000000E+00 -2.619346E-03  1.290870E-03  1.705569E-14 -7.522205E-01  0.000000E+00
  9.849260E-01  5.833456E-03  5.000000E-01  9.948686E-01  6.066446E-03  0.000000E+00 -3.214222E-03  1.580616E-03  3.927401E-15 -7.618008E-01  0.000000E+00
  9.826810E-01  6.930903E-03  5.000000E-01  9.926009E-01  7.174971E-03  0.000000E+00 -3.220975E-03  1.564240E-03 -7.529306E-16 -7.708221E-01  0.000000E+00
  9.800160E-01  8.210114E-03  5.000000E-01  9.899090E-01  8.467095E-03  0.000000E+00 -2.916521E-03  1.385764E-03 -1.383691E-15 -7.763938E-01  0.000000E+00
  9.769240E-01  9.657232E-03  5.000000E-01  9.867858E-01  9.928821E-03  0.000000E+00 -2.588665E-03  1.192218E-03 -8.267373E-16 -7.786175E-01  0.000000E+00
  9.733970E-01  1.125145E-02  5.000000E-01  9.832232E-01  1.153914E-02  0.000000E+00 -2.420734E-03  1.068107E-03 -2.957080E-16 -7.793578E-01  0.000000E+00
  9.694240E-01  1.296677E-02  5.000000E-01  9.792101E-01  1.327176E-02  0.000000E+00 -2.471948E-03  1.036217E-03 -4.140932E-17 -7.805586E-01  0.000000E+00
  9.649940E-01  1.477713E-02  5.000000E-01  9.747354E-01  1.510041E-02  0.000000E+00 -2.733788E-03  1.089278E-03  2.543045E-17 -7.822823E-01  0.000000E+00
  9.600960E-01  1.666327E-02  5.000000E-01  9.697880E-01  1.700558E-02  0.000000E+00 -3.197048E-03  1.203447E-03  2.215620E-17 -7.830973E-01  0.000000E+00
  9.547180E-01  1.860617E-02  5.000000E-01  9.643557E-01  1.896809E-02  0.000000E+00 -3.768437E-03  1.312965E-03  8.836465E-18 -7.883748E-01  0.000000E+00
  9.488510E-01  2.058793E-02  5.000000E-01  9.584294E-01  2.096986E-02  0.000000E+00 -3.987197E-03  1.271848E-03  1.529347E-18 -8.188989E-01  0.000000E+00
  9.424820E-01  2.259508E-02  5.000000E-01  9.519961E-01  2.299728E-02  0.000000E+00 -2.823498E-03  8.386364E-04  1.261680E-18 -8.964924E-01  0.000000E+00
  9.356020E-01  2.461927E-02  5.000000E-01  9.450467E-01  2.504190E-02  0.000000E+00  1.007163E-03 -2.550205E-04  6.225095E-18 -1.011003E+00  0.000000E+00
  9.282010E-01  2.665682E-02  5.000000E-01  9.375710E-01  2.710002E-02  0.000000E+00  7.781091E-03 -1.998875E-03  1.500416E-17 -1.116683E+00  0.000000E+00
  9.202710E-01  2.870554E-02  5.000000E-01  9.295609E-01  2.916942E-02  0.000000E+00  1.552962E-02 -3.822832E-03  2.363311E-17 -1.173873E+00  0.000000E+00
  9.118010E-01  3.075669E-02  5.000000E-01  9.210054E-01  3.124127E-02  0.000000E+00  2.119978E-02 -4.950994E-03  2.740888E-17 -1.181029E+00  0.000000E+00
  9.027810E-01  3.279825E-02  5.000000E-01  9.118944E-01  3.330344E-02  0.000000E+00  2.351675E-02 -5.151073E-03  2.420972E-17 -1.160603E+00  0.000000E+00
  8.932000E-01  3.481911E-02  5.000000E-01  9.022167E-01  3.534470E-02  0.000000E+00  2.355411E-02 -4.798169E-03  1.745678E-17 -1.131499E+00  0.000000E+00
  8.830490E-01  3.680620E-02  5.000000E-01  8.919632E-01  3.735185E-02  0.000000E+00  2.288065E-02 -4.309756E-03  1.230411E-17 -1.101195E+00  0.000000E+00
  8.723190E-01  3.874426E-02  5.000000E-01  8.811249E-01  3.930948E-02  0.000000E+00  2.232949E-02 -3.866815E-03  8.285362E-18 -1.071116E+00  0.000000E+00
  8.723190E-01  3.874426E-02  5.000000E-01  8.811249E-01  3.930948E-02  0.000000E+00  2.232949E-02 -3.866815E-03  8.285362E-18 -1.071116E+00  0.000000E+00
  8.610010E-01  4.061851E-02  5.000000E-01  8.696926E-01  4.120264E-02  0.000000E+00  2.203480E-02 -3.486328E-03  4.031143E-18 -1.041153E+00  0.000000E+00
  8.490890E-01  4.241511E-02  5.000000E-01  8.576604E-01  4.301738E-02  0.000000E+00  2.186228E-02 -3.139852E-03  1.291491E-18 -1.011185E+00  0.000000E+00
  8.365770E-01  4.412201E-02  5.000000E-01  8.450221E-01  4.474152E-02  0.000000E+00  2.167822E-02 -2.809946E-03 -9.361572E-19 -9.815901E-01  0.000000E+00
  8.234620E-01  4.573266E-02  5.000000E-01  8.317747E-01  4.636843E-02  0.000000E+00  2.142576E-02 -2.499554E-03 -1.848134E-18 -9.534152E-01  0.000000E+00
  8.097400E-01  4.724848E-02  5.000000E-01  8.179142E-01  4.789955E-02  0.000000E+00  2.110710E-02 -2.225106E-03 -7.128666E-19 -9.284231E-01  0.000000E+00
  7.954150E-01  4.868443E-02  5.000000E-01  8.034445E-01  4.934999E-02  0.000000E+00  2.075180E-02 -2.008994E-03 -7.131632E-20 -9.088330E-01  0.000000E+00
  7.804870E-01  5.007485E-02  5.000000E-01  7.883659E-01  5.075445E-02  0.000000E+00  2.041081E-02 -1.866742E-03  2.055322E-20 -8.961403E-01  0.000000E+00
  7.649630E-01  5.146675E-02  5.000000E-01  7.726851E-01  5.216040E-02  0.000000E+00  2.016283E-02 -1.785621E-03  3.101749E-19 -8.893167E-01  0.000000E+00
  7.488530E-01  5.287675E-02  5.000000E-01  7.564125E-01  5.358463E-02  0.000000E+00  2.005627E-02 -1.741069E-03 -1.662889E-19 -8.862211E-01  0.000000E+00
  7.321700E-01  5.431382E-02  5.000000E-01  7.395611E-01  5.503621E-02  0.000000E+00  2.007072E-02 -1.724253E-03 -8.928784E-19 -8.859598E-01  0.000000E+00
  7.149290E-01  5.579095E-02  5.000000E-01  7.221461E-01  5.652825E-02  0.000000E+00  2.016666E-02 -1.734339E-03 -1.824591E-18 -8.884314E-01  0.000000E+00
  6.971500E-01  5.732486E-02  5.000000E-01  7.041876E-01  5.807764E-02  0.000000E+00  2.032121E-02 -1.771156E-03 -4.796588E-18 -8.935786E-01  0.000000E+00
  6.788570E-01  5.893388E-02  5.000000E-01  6.857099E-01  5.970291E-02  0.000000E+00  2.053457E-02 -1.830449E-03 -9.388739E-18 -9.007202E-01  0.000000E+00
  6.600760E-01  6.062865E-02  5.000000E-01  6.667393E-01  6.141478E-02  0.000000E+00  2.081874E-02 -1.899132E-03 -1.335251E-17 -9.081250E-01  0.000000E+00
  6.408370E-01  6.240272E-02  5.000000E-01  6.473061E-01  6.320676E-02  0.000000E+00  2.118201E-02 -1.951724E-03 -1.557837E-17 -9.130861E-01  0.000000E+00
  6.211780E-01  6.421442E-02  5.000000E-01  6.274487E-01  6.503675E-02  0.000000E+00  2.159889E-02 -1.963489E-03 -1.649656E-17 -9.133648E-01  0.000000E+00
  6.011430E-01  6.601229E-02  5.000000E-01  6.072114E-01  6.685277E-02  0.000000E+00  2.201169E-02 -1.923240E-03 -1.652701E-17 -9.082305E-01  0.000000E+00
  5.807790E-01  6.774464E-02  5.000000E-01  5.866419E-01  6.860261E-02  0.000000E+00  2.237320E-02 -1.829925E-03 -1.452983E-17 -8.979347E-01  0.000000E+00
  5.601410E-01  6.936659E-02  5.000000E-01  5.657955E-01  7.024093E-02  0.000000E+00  2.266969E-02 -1.686468E-03 -1.209518E-17 -8.830709E-01  0.000000E+00
  5.392850E-01  7.083244E-02  5.000000E-01  5.447290E-01  7.172158E-02  0.000000E+00  2.290178E-02 -1.504028E-03 -1.162604E-17 -8.648516E-01  0.000000E+00
  5.182680E-01  7.211585E-02  5.000000E-01  5.234998E-01  7.301794E-02  0.000000E+00  2.306918E-02 -1.305780E-03 -1.204297E-17 -8.453081E-01  0.000000E+00
  4.971500E-01  7.321630E-02  5.000000E-01  5.021686E-01  7.412950E-02  0.000000E+00  2.319672E-02 -1.107517E-03 -1.132624E-17 -8.258545E-01  0.000000E+00
  4.759900E-01  7.413425E-02  5.000000E-01  4.807950E-01  7.505672E-02  0.000000E+00  2.332395E-02 -9.117739E-04 -9.371792E-18 -8.068475E-01  0.000000E+00
  2.733630E-06 -4.877924E-04  5.000000E-01  2.813637E-06 -3.186140E-04  0.000000E+00  4.640040E-04 -1.832367E-02 -2.780217E-18  1.097220E+00  0.000000E+00
  4.455870E-05 -1.433695E-03  5.000000E-01  4.506092E-05 -1.274065E-03  0.000000E+00  2.238141E-03 -2.181757E-02  2.149113E-17  1.067931E+00  0.000000E+00
  2.731490E-04 -2.974081E-03  5.000000E-01  2.759588E-04 -2.830001E-03  0.000000E+00  6.542045E-03 -2.478556E-02  3.244694E-17  9.475531E-01  0.000000E+00
  9.950900E-04 -4.938620E-03  5.000000E-01  1.005188E-03 -4.814371E-03  0.000000E+00  1.270507E-02 -2.519027E-02  3.221773E-17  7.382225E-01  0.000000E+00
  2.349870E-03 -7.023264E-03  5.000000E-01  2.373644E-03 -6.920060E-03  0.000000E+00  1.840522E-02 -2.403875E-02  3.042080E-17  5.289164E-01  0.000000E+00
  4.254460E-03 -9.160687E-03  5.000000E-01  4.297460E-03 -9.079059E-03  0.000000E+00  2.304965E-02 -2.275833E-02  1.870496E-17  3.567772E-01  0.000000E+00
  6.687140E-03 -1.129180E-02  5.000000E-01  6.754697E-03 -1.123169E-02  0.000000E+00  2.708228E-02 -2.128833E-02 -7.617326E-19  1.930784E-01  0.000000E+00
  9.634000E-03 -1.337876E-02  5.000000E-01  9.731305E-03 -1.333971E-02  0.000000E+00  3.037414E-02 -1.928720E-02 -1.357263E-17  2.669444E-02  0.000000E+00
  1.310530E-02 -1.535355E-02  5.000000E-01  1.323765E-02 -1.533443E-02  0.000000E+00  3.262436E-02 -1.662059E-02 -9.737310E-18 -1.382401E-01  0.000000E+00
  1.710810E-02 -1.716422E-02  5.000000E-01  1.728085E-02 -1.716338E-02  0.000000E+00  3.389720E-02 -1.382718E-02  1.389715E-17 -2.791841E-01  0.000000E+00
  2.163760E-02 -1.881148E-02  5.000000E-01  2.185608E-02 -1.882727E-02  0.000000E+00  3.458475E-02 -1.139117E-02  4.575299E-17 -3.866779E-01  0.000000E+00
  2.669190E-02 -2.030523E-02  5.000000E-01  2.696140E-02 -2.033610E-02  0.000000E+00  3.483471E-02 -9.241877E-03  6.899494E-17 -4.732038E-01  0.000000E+00
  3.228310E-02 -2.162150E-02  5.000000E-01  3.260904E-02 -2.166566E-02  0.000000E+00  3.460745E-02 -7.256662E-03  7.864970E-17 -5.484723E-01  0.000000E+00
  3.842170E-02 -2.274853E-02  5.000000E-01  3.880961E-02 -2.280407E-02  0.000000E+00  3.398853E-02 -5.512930E-03  8.163720E-17 -6.114559E-01  0.000000E+00
  4.511710E-02 -2.368759E-02  5.000000E-01  4.557260E-02 -2.375260E-02  0.000000E+00  3.310856E-02 -4.056688E-03  7.942963E-17 -6.609172E-01  0.000000E+00
  5.237940E-02 -2.444458E-02  5.000000E-01  5.290821E-02 -2.451724E-02  0.000000E+00  3.209207E-02 -2.892135E-03  7.163582E-17 -6.964724E-01  0.000000E+00
  6.021800E-02 -2.503595E-02  5.000000E-01  6.082594E-02 -2.511458E-02  0.000000E+00  3.106011E-02 -2.010597E-03  6.209673E-17 -7.180835E-01  0.000000E+00
  6.864140E-02 -2.548781E-02  5.000000E-01  6.933437E-02 -2.557100E-02  0.000000E+00  3.006484E-02 -1.366820E-03  5.179448E-17 -7.273634E-01  0.000000E+00
  7.765990E-02 -2.582213E-02  5.000000E-01  7.844391E-02 -2.590870E-02  0.000000E+00  2.908765E-02 -9.089519E-04  4.091404E-17 -7.261044E-01  0.000000E+00
  8.728340E-02 -2.606511E-02  5.000000E-01  8.816455E-02 -2.615413E-02  0.000000E+00  2.806403E-02 -6.092456E-04  3.243003E-17 -7.146339E-01  0.000000E+00
  9.752070E-02 -2.625009E-02  5.000000E-01  9.850520E-02 -2.634098E-02  0.000000E+00  2.684573E-02 -4.406445E-04  2.661927E-17 -6.927949E-01  0.000000E+00
  1.083810E-01 -2.641022E-02  5.000000E-01  1.094751E-01 -2.650273E-02  0.000000E+00  2.525526E-02 -3.752446E-04  2.181441E-17 -6.597016E-01  0.000000E+00
  1.198710E-01 -2.658245E-02  5.000000E-01  1.210811E-01 -2.667669E-02  0.000000E+00  2.325022E-02 -3.897360E-04  1.723714E-17 -6.131481E-01  0.000000E+00
  1.319970E-01 -2.680773E-02  5.000000E-01  1.333295E-01 -2.690424E-02  0.000000E+00  2.106483E-02 -4.568558E-04  1.260565E-17 -5.510272E-01  0.000000E+00
  1.319970E-01 -2.680773E-02  5.000000E-01  1.333295E-01 -2.690424E-02  0.000000E+00  2.106483E-02 -4.568558E-04  1.260565E-17 -5.510272E-01  0.000000E+00
  1.447640E-01 -2.712418E-02  5.000000E-01  1.462254E-01 -2.722389E-02  0.000000E+00  1.919881E-02 -5.555525E-04  8.788939E-18 -4.741567E-01  0.000000E+00
  1.581750E-01 -2.756615E-02  5.000000E-01  1.597718E-01 -2.767032E-02  0.000000E+00  1.817548E-02 -6.796207E-04  5.662532E-18 -3.902839E-01  0.000000E+00
  1.722290E-01 -2.815251E-02  5.000000E-01  1.739677E-01 -2.826260E-02  0.000000E+00  1.821763E-02 -8.205606E-04  3.880605E-18 -3.157501E-01  0.000000E+00
  1.869240E-01 -2.886593E-02  5.000000E-01  1.888110E-01 -2.898323E-02  0.000000E+00  1.912497E-02 -9.303707E-04  2.679951E-18 -2.702140E-01  0.000000E+00
  2.022540E-01 -2.962550E-02  5.000000E-01  2.042958E-01 -2.975045E-02  0.000000E+00  2.040575E-02 -8.966943E-04  1.814784E-18 -2.667942E-01  0.000000E+00
  2.182110E-01 -3.025436E-02  5.000000E-01  2.204138E-01 -3.038567E-02  0.000000E+00  2.157600E-02 -6.562969E-04  1.865710E-18 -2.999795E-01  0.000000E+00
  2.347810E-01 -3.061502E-02  5.000000E-01  2.371511E-01 -3.074996E-02  0.000000E+00  2.236907E-02 -2.984603E-04  1.859221E-18 -3.467196E-01  0.000000E+00
  2.519470E-01 -3.069628E-02  5.000000E-01  2.544904E-01 -3.083205E-02  0.000000E+00  2.263684E-02  6.336506E-05  1.556758E-18 -3.866628E-01  0.000000E+00
  2.696890E-01 -3.050926E-02  5.000000E-01  2.724115E-01 -3.064314E-02  0.000000E+00  2.231572E-02  3.685603E-04  6.196153E-20 -4.107658E-01  0.000000E+00
  2.879810E-01 -3.009214E-02  5.000000E-01  2.908881E-01 -3.022181E-02  0.000000E+00  2.155062E-02  5.700962E-04 -5.897603E-19 -4.156609E-01  0.000000E+00
  3.067920E-01 -2.951890E-02  5.000000E-01  3.098890E-01 -2.964278E-02  0.000000E+00  2.069360E-02  6.440790E-04  7.053168E-19 -4.018629E-01  0.000000E+00
  3.260870E-01 -2.889922E-02  5.000000E-01  3.293788E-01 -2.901684E-02  0.000000E+00  2.014363E-02  6.025410E-04  1.263740E-18 -3.750610E-01  0.000000E+00
  3.458260E-01 -2.835224E-02  5.000000E-01  3.493171E-01 -2.846435E-02  0.000000E+00  2.008912E-02  5.178411E-04  1.275843E-18 -3.486059E-01  0.000000E+00
  3.659650E-01 -2.787900E-02  5.000000E-01  3.696594E-01 -2.798632E-02  0.000000E+00  2.044362E-02  4.726067E-04  2.136148E-18 -3.364707E-01  0.000000E+00
  3.864540E-01 -2.742019E-02  5.000000E-01  3.903552E-01 -2.752289E-02  0.000000E+00  2.095286E-02  4.940854E-04  3.688117E-18 -3.432040E-01  0.000000E+00
  4.072410E-01 -2.691108E-02  5.000000E-01  4.113520E-01 -2.700863E-02  0.000000E+00  2.123763E-02  5.784687E-04  2.396818E-18 -3.641321E-01  0.000000E+00
  4.282690E-01 -2.628509E-02  5.000000E-01  4.325923E-01 -2.637633E-02  0.000000E+00  2.089102E-02  7.088299E-04 -1.402657E-19 -3.880254E-01  0.000000E+00
  4.494800E-01 -2.547346E-02  5.000000E-01  4.540174E-01 -2.555651E-02  0.000000E+00  1.973520E-02  8.413723E-04 -2.006100E-18 -3.983359E-01  0.000000E+00
  4.708130E-01 -2.445161E-02  5.000000E-01  4.755658E-01 -2.452434E-02  0.000000E+00  1.802219E-02  9.258515E-04 -2.995792E-18 -3.791123E-01  0.000000E+00
  4.922030E-01 -2.325306E-02  5.000000E-01  4.971717E-01 -2.331369E-02  0.000000E+00  1.628790E-02  9.602910E-04 -7.724381E-19 -3.269742E-01  0.000000E+00
  5.135860E-01 -2.191449E-02  5.000000E-01  5.187706E-01 -2.196161E-02  0.000000E+00  1.499081E-02  9.779610E-04  3.375777E-19 -2.558413E-01  0.000000E+00
  5.348990E-01 -2.046970E-02  5.000000E-01  5.402987E-01 -2.050223E-02  0.000000E+00  1.428716E-02  1.000239E-03  2.880585E-19 -1.882151E-01  0.000000E+00
  5.560760E-01 -1.895359E-02  5.000000E-01  5.616895E-01 -1.897081E-02  0.000000E+00  1.404672E-02  1.034132E-03  1.024833E-18 -1.412591E-01  0.000000E+00
  4.759900E-01  7.413425E-02  5.000000E-01  4.807950E-01  7.505672E-02  0.000000E+00  2.332395E-02 -9.117739E-04 -9.371792E-18 -8.068475E-01  0.000000E+00
  4.548480E-01  7.486997E-02  5.000000E-01  4.594396E-01  7.579987E-02  0.000000E+00  2.347190E-02 -7.187082E-04 -8.082057E-18 -7.882839E-01  0.000000E+00
  4.337860E-01  7.542660E-02  5.000000E-01  4.381650E-01  7.636211E-02  0.000000E+00  2.364624E-02 -5.240800E-04 -7.547902E-18 -7.696353E-01  0.000000E+00
  4.128620E-01  7.580177E-02  5.000000E-01  4.170298E-01  7.674107E-02  0.000000E+00  2.384719E-02 -3.138810E-04 -7.511192E-18 -7.495341E-01  0.000000E+00
  3.921340E-01  7.597721E-02  5.000000E-01  3.960925E-01  7.691828E-02  0.000000E+00  2.405531E-02 -7.532203E-05 -7.516974E-18 -7.266076E-01  0.000000E+00
  3.716590E-01  7.593350E-02  5.000000E-01  3.754108E-01  7.687413E-02  0.000000E+00  2.423244E-02  1.952646E-04 -6.815677E-18 -7.001435E-01  0.000000E+00
  3.514890E-01  7.565294E-02  5.000000E-01  3.550372E-01  7.659074E-02  0.000000E+00  2.434323E-02  4.963434E-04 -5.641164E-18 -6.700057E-01  0.000000E+00
  3.316730E-01  7.512207E-02  5.000000E-01  3.350212E-01  7.605451E-02  0.000000E+00  2.436014E-02  8.189086E-04 -5.262886E-18 -6.369666E-01  0.000000E+00
  3.122580E-01  7.433689E-02  5.000000E-01  3.154102E-01  7.526140E-02  0.000000E+00  2.425691E-02  1.136722E-03 -4.835000E-18 -6.033692E-01  0.000000E+00
  2.932850E-01  7.332402E-02  5.000000E-01  2.962457E-01  7.423831E-02  0.000000E+00  2.403248E-02  1.423321E-03 -5.284576E-18 -5.719057E-01  0.000000E+00
  2.747930E-01  7.211873E-02  5.000000E-01  2.775670E-01  7.302085E-02  0.000000E+00  2.372618E-02  1.674065E-03 -5.416347E-18 -5.438952E-01  0.000000E+00
  2.568150E-01  7.075194E-02  5.000000E-01  2.594075E-01  7.164026E-02  0.000000E+00  2.338734E-02  1.896647E-03 -2.996646E-18 -5.196048E-01  0.000000E+00
  2.393810E-01  6.924892E-02  5.000000E-01  2.417975E-01  7.012207E-02  0.000000E+00  2.305627E-02  2.101673E-03 -2.187639E-18 -4.990905E-01  0.000000E+00
  2.225160E-01  6.762939E-02  5.000000E-01  2.247623E-01  6.848620E-02  0.000000E+00  2.276070E-02  2.296932E-03 -1.552176E-18 -4.833364E-01  0.000000E+00
  2.062420E-01  6.590790E-02  5.000000E-01  2.083240E-01  6.674733E-02  0.000000E+00  2.250012E-02  2.455763E-03 -2.879675E-19 -4.768631E-01  0.000000E+00
  1.905750E-01  6.414009E-02  5.000000E-01  1.924989E-01  6.496167E-02  0.000000E+00  2.229038E-02  2.522915E-03 -4.686602E-19 -4.865545E-01  0.000000E+00
  1.755290E-01  6.242702E-02  5.000000E-01  1.773010E-01  6.323131E-02  0.000000E+00  2.227155E-02  2.517780E-03 -6.394419E-19 -5.127570E-01  0.000000E+00
  1.611160E-01  6.080897E-02  5.000000E-01  1.627425E-01  6.159693E-02  0.000000E+00  2.261698E-02  2.519858E-03 -1.144149E-18 -5.484316E-01  0.000000E+00
  1.473410E-01  5.928708E-02  5.000000E-01  1.488284E-01  6.005967E-02  0.000000E+00  2.335719E-02  2.576094E-03 -1.454043E-18 -5.860488E-01  0.000000E+00
  1.342110E-01  5.784296E-02  5.000000E-01  1.355659E-01  5.860097E-02  0.000000E+00  2.437522E-02  2.701165E-03 -1.638207E-19 -6.203005E-01  0.000000E+00
  1.217280E-01  5.645050E-02  5.000000E-01  1.229569E-01  5.719446E-02  0.000000E+00  2.549697E-02  2.895366E-03  1.956996E-18 -6.486970E-01  0.000000E+00
  1.098910E-01  5.508376E-02  5.000000E-01  1.110004E-01  5.581392E-02  0.000000E+00  2.659548E-02  3.164912E-03  3.669088E-18 -6.703391E-01  0.000000E+00
  9.869950E-02  5.371375E-02  5.000000E-01  9.969590E-02  5.443008E-02  0.000000E+00  2.762593E-02  3.525711E-03  5.691827E-18 -6.848993E-01  0.000000E+00
  8.814970E-02  5.231392E-02  5.000000E-01  8.903960E-02  5.301612E-02  0.000000E+00  2.860545E-02  4.004121E-03  9.118371E-18 -6.919160E-01  0.000000E+00
  8.814970E-02  5.231392E-02  5.000000E-01  8.903960E-02  5.301612E-02  0.000000E+00  2.860545E-02  4.004121E-03  9.118371E-18 -6.919160E-01  0.000000E+00
  7.823720E-02  5.085646E-02  5.000000E-01  7.902704E-02  5.154395E-02  0.000000E+00  2.957536E-02  4.643367E-03  1.440519E-17 -6.900847E-01  0.000000E+00
  6.895800E-02  4.930981E-02  5.000000E-01  6.965416E-02  4.998169E-02  0.000000E+00  3.054690E-02  5.485818E-03  1.933725E-17 -6.778788E-01  0.000000E+00
  6.030560E-02  4.764755E-02  5.000000E-01  6.091442E-02  4.830264E-02  0.000000E+00  3.150357E-02  6.586500E-03  2.058836E-17 -6.528041E-01  0.000000E+00
  5.227560E-02  4.583696E-02  5.000000E-01  5.280336E-02  4.647377E-02  0.000000E+00  3.238553E-02  8.007499E-03  1.834981E-17 -6.113130E-01  0.000000E+00
  4.486350E-02  4.384691E-02  5.000000E-01  4.531644E-02  4.446363E-02  0.000000E+00  3.305035E-02  9.770863E-03  1.275362E-17 -5.503347E-01  0.000000E+00
  3.806240E-02  4.165495E-02  5.000000E-01  3.844668E-02  4.224955E-02  0.000000E+00  3.331083E-02  1.187452E-02  4.418053E-18 -4.659435E-01  0.000000E+00
  3.186880E-02  3.923631E-02  5.000000E-01  3.219056E-02  3.980649E-02  0.000000E+00  3.291986E-02  1.422557E-02 -2.894192E-18 -3.549038E-01  0.000000E+00
  2.627530E-02  3.658115E-02  5.000000E-01  2.654059E-02  3.712453E-02  0.000000E+00  3.161980E-02  1.659534E-02 -5.007454E-18 -2.164252E-01  0.000000E+00
  2.127350E-02  3.369178E-02  5.000000E-01  2.148830E-02  3.420599E-02  0.000000E+00  2.928369E-02  1.870447E-02 -5.384045E-18 -5.059516E-02  0.000000E+00
  1.685790E-02  3.057531E-02  5.000000E-01  1.702813E-02  3.105806E-02  0.000000E+00  2.596190E-02  2.019087E-02 -9.188306E-18  1.369251E-01  0.000000E+00
  1.301460E-02  2.726705E-02  5.000000E-01  1.314603E-02  2.771641E-02  0.000000E+00  2.191725E-02  2.076066E-02 -1.586720E-17  3.363861E-01  0.000000E+00
  9.730790E-03  2.381268E-02  5.000000E-01  9.829072E-03  2.422717E-02  0.000000E+00  1.755641E-02  2.034505E-02 -2.352202E-17  5.385777E-01  0.000000E+00
  6.996180E-03  2.026760E-02  5.000000E-01  7.066857E-03  2.064629E-02  0.000000E+00  1.329144E-02  1.892927E-02 -2.368867E-17  7.283889E-01  0.000000E+00
  4.781010E-03  1.672400E-02  5.000000E-01  4.829325E-03  1.706693E-02  0.000000E+00  9.437883E-03  1.661422E-02 -1.591988E-17  8.922229E-01  0.000000E+00
  3.054950E-03  1.327818E-02  5.000000E-01  3.085841E-03  1.358632E-02  0.000000E+00  6.153034E-03  1.362107E-02 -1.280659E-17  1.025573E+00  0.000000E+00
  1.789910E-03  1.002612E-02  5.000000E-01  1.808031E-03  1.030144E-02  0.000000E+00  3.522418E-03  1.008374E-02 -1.556883E-17  1.123945E+00  0.000000E+00
  9.331870E-04  7.077768E-03  5.000000E-01  9.426597E-04  7.323319E-03  0.000000E+00  1.603979E-03  6.085849E-03 -1.807574E-17  1.183746E+00  0.000000E+00
  4.085430E-04  4.542459E-03  5.000000E-01  4.127195E-04  4.762416E-03  0.000000E+00  3.756035E-04  1.716184E-03 -2.098794E-17  1.207905E+00  0.000000E+00
  1.354760E-04  2.508116E-03  5.000000E-01  1.368960E-04  2.707537E-03  0.000000E+00 -2.383847E-04 -2.989449E-03 -2.852907E-17  1.204159E+00  0.000000E+00
  2.683130E-05  1.027256E-03  5.000000E-01  2.715457E-05  1.211728E-03  0.000000E+00 -3.409463E-04 -8.026669E-03 -3.894258E-17  1.180864E+00  0.000000E+00
  1.320070E-06  1.287000E-04  5.000000E-01  1.385807E-06  3.041017E-04  0.000000E+00 -2.057125E-04 -1.292163E-02 -4.193246E-17  1.140667E+00  0.000000E+00
 -5.188750E-08 -1.723626E-04  5.000000E-01  0.000000E+00  0.000000E+00  0.000000E+00 -4.350424E-05 -1.603421E-02 -2.816497E-17  1.105835E+00  0.000000E+00