 Title = "ADflow Slice Data"
Variables =  "CoordinateX"  "CoordinateY"  "CoordinateZ"  "XoC"  "YoC"  "ZoC" "VelocityX" "VelocityY" "VelocityZ" "CoefPressure" "Mach" 
Zone T= "Slice_0001 None Absolute Regular z = 0.50000000"
 Nodes =          192  Elements=          184  ZONETYPE=FELINESEG
 DATAPACKING=POINT
  5.560760E-01 -1.893738E-02  5.000000E-01  5.616895E-01 -1.895503E-02  0.000000E+00  1.506857E-02  1.097797E-03 -5.132876E-18 -1.687338E-01  0.000000E+00
  5.770550E-01 -1.737422E-02  5.000000E-01  5.828802E-01 -1.737609E-02  0.000000E+00  1.470279E-02  1.131672E-03  9.045901E-18 -1.386540E-01  0.000000E+00
  5.977760E-01 -1.573236E-02  5.000000E-01  6.038104E-01 -1.571766E-02  0.000000E+00  1.434461E-02  1.180831E-03  1.903299E-17 -1.170408E-01  0.000000E+00
  6.181820E-01 -1.398904E-02  5.000000E-01  6.244224E-01 -1.395674E-02  0.000000E+00  1.385995E-02  1.236324E-03  1.631539E-17 -9.832654E-02  0.000000E+00
  6.382180E-01 -1.212082E-02  5.000000E-01  6.446607E-01 -1.206966E-02  0.000000E+00  1.317295E-02  1.283639E-03  6.679842E-18 -7.593636E-02  0.000000E+00
  6.578350E-01 -1.011752E-02  5.000000E-01  6.644757E-01 -1.004614E-02  0.000000E+00  1.228086E-02  1.306162E-03 -8.264777E-18 -4.561985E-02  0.000000E+00
  6.769910E-01 -7.989225E-03  5.000000E-01  6.838251E-01 -7.896361E-03  0.000000E+00  1.122991E-02  1.293476E-03 -2.125005E-17 -7.222326E-03  0.000000E+00
  6.956490E-01 -5.755920E-03  5.000000E-01  7.026714E-01 -5.640511E-03  0.000000E+00  1.008197E-02  1.242173E-03 -2.143813E-17  3.651341E-02  0.000000E+00
  7.137810E-01 -3.451360E-03  5.000000E-01  7.209864E-01 -3.312687E-03  0.000000E+00  8.894274E-03  1.153372E-03 -1.167674E-17  8.239715E-02  0.000000E+00
  7.313660E-01 -1.120504E-03  5.000000E-01  7.387490E-01 -9.583020E-04  0.000000E+00  7.709578E-03  1.035052E-03  6.991678E-19  1.278378E-01  0.000000E+00
  7.483850E-01  1.196891E-03  5.000000E-01  7.559398E-01  1.382486E-03  0.000000E+00  6.563086E-03  9.013817E-04  7.382884E-18  1.711197E-01  0.000000E+00
  7.648220E-01  3.475077E-03  5.000000E-01  7.725427E-01  3.683670E-03  0.000000E+00  5.499864E-03  7.667393E-04  7.431448E-18  2.113332E-01  0.000000E+00
  7.806630E-01  5.696429E-03  5.000000E-01  7.885436E-01  5.927446E-03  0.000000E+00  4.589268E-03  6.367950E-04  4.508462E-18  2.488126E-01  0.000000E+00
  7.958970E-01  7.793010E-03  5.000000E-01  8.039314E-01  8.045191E-03  0.000000E+00  3.923630E-03  5.111327E-04  2.164798E-18  2.851127E-01  0.000000E+00
  8.105170E-01  9.581265E-03  5.000000E-01  8.186990E-01  9.851498E-03  0.000000E+00  3.565184E-03  3.974790E-04  1.640002E-18  3.175441E-01  0.000000E+00
  8.245160E-01  1.096951E-02  5.000000E-01  8.328393E-01  1.125376E-02  0.000000E+00  3.500921E-03  3.032708E-04 -7.933709E-19  3.407528E-01  0.000000E+00
  8.378940E-01  1.195580E-02  5.000000E-01  8.463523E-01  1.225000E-02  0.000000E+00  3.669853E-03  2.236724E-04 -2.814830E-18  3.542287E-01  0.000000E+00
  8.506490E-01  1.258261E-02  5.000000E-01  8.592361E-01  1.288314E-02  0.000000E+00  4.006090E-03  1.495401E-04 -2.517506E-18  3.609347E-01  0.000000E+00
  8.627850E-01  1.290853E-02  5.000000E-01  8.714946E-01  1.321236E-02  0.000000E+00  4.455483E-03  7.365280E-05 -3.250489E-18  3.634017E-01  0.000000E+00
  8.743060E-01  1.299328E-02  5.000000E-01  8.831319E-01  1.329795E-02  0.000000E+00  4.974371E-03 -7.905139E-06 -5.920720E-18  3.627720E-01  0.000000E+00
  8.852170E-01  1.288857E-02  5.000000E-01  8.941530E-01  1.319219E-02  0.000000E+00  5.528438E-03 -9.653861E-05 -8.111245E-18  3.596840E-01  0.000000E+00
  8.955250E-01  1.263546E-02  5.000000E-01  9.045651E-01  1.293652E-02  0.000000E+00  6.093591E-03 -1.922575E-04 -1.199467E-17  3.546615E-01  0.000000E+00
  9.052400E-01  1.226694E-02  5.000000E-01  9.143782E-01  1.256429E-02  0.000000E+00  6.656511E-03 -2.950415E-04 -1.637228E-17  3.481116E-01  0.000000E+00
  9.143710E-01  1.180872E-02  5.000000E-01  9.236013E-01  1.210144E-02  0.000000E+00  7.215977E-03 -4.076793E-04 -2.405847E-17  3.404660E-01  0.000000E+00
  9.143710E-01  1.180872E-02  5.000000E-01  9.236013E-01  1.210144E-02  0.000000E+00  7.215977E-03 -4.076793E-04 -2.405847E-17  3.404660E-01  0.000000E+00
  9.229270E-01  1.127570E-02  5.000000E-01  9.322437E-01  1.156304E-02  0.000000E+00  7.782293E-03 -5.357125E-04 -2.673765E-17  3.319640E-01  0.000000E+00
  9.309180E-01  1.067717E-02  5.000000E-01  9.403154E-01  1.095847E-02  0.000000E+00  8.372826E-03 -6.844234E-04 -8.364481E-18  3.223535E-01  0.000000E+00
  9.383550E-01  1.002181E-02  5.000000E-01  9.478274E-01  1.029649E-02  0.000000E+00  9.008284E-03 -8.587576E-04  6.094417E-17  3.111705E-01  0.000000E+00
  9.452490E-01  9.318407E-03  5.000000E-01  9.547910E-01  9.585987E-03  0.000000E+00  9.712258E-03 -1.065478E-03  2.392542E-16  2.980313E-01  0.000000E+00
  9.516100E-01  8.575425E-03  5.000000E-01  9.612163E-01  8.835505E-03  0.000000E+00  1.051132E-02 -1.313226E-03  5.701081E-16  2.825373E-01  0.000000E+00
  9.574470E-01  7.802407E-03  5.000000E-01  9.671122E-01  8.054683E-03  0.000000E+00  1.143322E-02 -1.610905E-03  1.031052E-15  2.640883E-01  0.000000E+00
  9.627730E-01  7.010621E-03  5.000000E-01  9.724919E-01  7.254905E-03  0.000000E+00  1.250621E-02 -1.968057E-03  1.518951E-15  2.419983E-01  0.000000E+00
  9.675950E-01  6.213529E-03  5.000000E-01  9.773626E-01  6.449766E-03  0.000000E+00  1.376152E-02 -2.394266E-03  2.096025E-15  2.155479E-01  0.000000E+00
  9.719240E-01  5.426260E-03  5.000000E-01  9.817353E-01  5.654550E-03  0.000000E+00  1.523977E-02 -2.899840E-03  3.541672E-15  1.839095E-01  0.000000E+00
  9.757700E-01  4.665252E-03  5.000000E-01  9.856201E-01  4.885860E-03  0.000000E+00  1.700466E-02 -3.501226E-03  7.192072E-15  1.462524E-01  0.000000E+00
  9.791410E-01  3.947050E-03  5.000000E-01  9.890252E-01  4.160407E-03  0.000000E+00  1.915577E-02 -4.223985E-03  1.191500E-14  1.016765E-01  0.000000E+00
  9.820450E-01  3.287576E-03  5.000000E-01  9.919585E-01  3.494277E-03  0.000000E+00  2.181154E-02 -5.099572E-03  8.353536E-15  4.883788E-02  0.000000E+00
  9.844890E-01  2.701614E-03  5.000000E-01  9.944272E-01  2.902400E-03  0.000000E+00  2.503636E-02 -6.152370E-03 -2.113564E-14 -1.397037E-02  0.000000E+00
  9.864800E-01  2.202489E-03  5.000000E-01  9.964383E-01  2.398236E-03  0.000000E+00  2.875897E-02 -7.337851E-03 -8.069289E-14 -8.719589E-02  0.000000E+00
  9.880230E-01  1.801935E-03  5.000000E-01  9.979968E-01  1.993639E-03  0.000000E+00  3.246658E-02 -8.457768E-03 -1.109677E-13 -1.778128E-01  0.000000E+00
  9.891220E-01  1.509206E-03  5.000000E-01  9.991069E-01  1.697954E-03  0.000000E+00  3.594005E-02 -9.743231E-03  4.581006E-14 -2.866525E-01  0.000000E+00
  9.897810E-01  1.330851E-03  5.000000E-01  9.997726E-01  1.517799E-03  0.000000E+00  5.277843E-02 -1.246244E-02  4.342267E-13 -3.054847E-01  0.000000E+00
  9.900000E-01  1.270978E-03  5.000000E-01  9.999938E-01  1.457322E-03  0.000000E+00  3.650499E-02 -2.271760E-03  5.014802E-13 -6.802954E-01  0.000000E+00
  9.900000E-01  1.680481E-03  5.000000E-01  9.999938E-01  1.870958E-03  0.000000E+00  2.127874E-03 -7.784881E-03  1.877994E-13 -9.797302E-01  0.000000E+00
  9.900000E-01  2.089983E-03  5.000000E-01  9.999938E-01  2.284594E-03  0.000000E+00 -5.416394E-04 -2.193299E-02  2.871097E-14 -8.245007E-01  0.000000E+00
  9.900000E-01  2.499486E-03  5.000000E-01  9.999938E-01  2.698231E-03  0.000000E+00 -1.402049E-04 -1.348732E-02  3.620592E-14 -7.968337E-01  0.000000E+00
  9.900000E-01  2.908973E-03  5.000000E-01  9.999938E-01  3.111852E-03  0.000000E+00  3.202155E-04 -8.314681E-03  8.873474E-14 -8.268157E-01  0.000000E+00
  9.900000E-01  3.318476E-03  5.000000E-01  9.999938E-01  3.525488E-03  0.000000E+00  4.471671E-03 -6.759598E-03  1.330410E-13 -7.915281E-01  0.000000E+00
  9.900000E-01  3.318476E-03  5.000000E-01  9.999938E-01  3.525488E-03  0.000000E+00  4.471671E-03 -6.759598E-03  1.330410E-13 -7.915281E-01  0.000000E+00
  9.897980E-01  3.422616E-03  5.000000E-01  9.997897E-01  3.630679E-03  0.000000E+00  5.440417E-03 -3.343162E-03  1.319936E-13 -7.432849E-01  0.000000E+00
  9.891900E-01  3.735030E-03  5.000000E-01  9.991756E-01  3.946247E-03  0.000000E+00  1.129699E-03 -5.170392E-04  9.209187E-14 -7.513403E-01  0.000000E+00
  9.881780E-01  4.255032E-03  5.000000E-01  9.981534E-01  4.471499E-03  0.000000E+00 -1.264651E-03  6.524094E-04  4.880289E-14 -7.584294E-01  0.000000E+00
  9.867570E-01  4.981321E-03  5.000000E-01  9.967180E-01  5.205120E-03  0.000000E+00 -2.628959E-03  1.328611E-03  1.940024E-14 -7.652863E-01  0.000000E+00
  9.849260E-01  5.910379E-03  5.000000E-01  9.948686E-01  6.143556E-03  0.000000E+00 -3.237692E-03  1.632669E-03  5.052861E-15 -7.750976E-01  0.000000E+00
  9.826810E-01  7.035721E-03  5.000000E-01  9.926009E-01  7.280257E-03  0.000000E+00 -3.243826E-03  1.615539E-03  2.278249E-16 -7.842890E-01  0.000000E+00
  9.800160E-01  8.347601E-03  5.000000E-01  9.899090E-01  8.605381E-03  0.000000E+00 -2.935695E-03  1.430711E-03 -4.772491E-16 -7.899061E-01  0.000000E+00
  9.769240E-01  9.831944E-03  5.000000E-01  9.867858E-01  1.010471E-02  0.000000E+00 -2.610735E-03  1.233251E-03 -9.975262E-17 -7.920866E-01  0.000000E+00
  9.733970E-01  1.146761E-02  5.000000E-01  9.832232E-01  1.175688E-02  0.000000E+00 -2.455823E-03  1.111471E-03  2.317821E-16 -7.928344E-01  0.000000E+00
  9.694240E-01  1.322808E-02  5.000000E-01  9.792101E-01  1.353513E-02  0.000000E+00 -2.529840E-03  1.089211E-03  3.282524E-16 -7.940729E-01  0.000000E+00
  9.649940E-01  1.508665E-02  5.000000E-01  9.747354E-01  1.541246E-02  0.000000E+00 -2.829659E-03  1.159299E-03  2.851205E-16 -7.954706E-01  0.000000E+00
  9.600960E-01  1.702310E-02  5.000000E-01  9.697879E-01  1.736846E-02  0.000000E+00 -3.346987E-03  1.292073E-03  2.007903E-16 -7.959468E-01  0.000000E+00
  9.547180E-01  1.901727E-02  5.000000E-01  9.643556E-01  1.938276E-02  0.000000E+00 -3.940529E-03  1.403029E-03  1.136900E-16 -8.035881E-01  0.000000E+00
  9.488510E-01  2.104976E-02  5.000000E-01  9.584294E-01  2.143577E-02  0.000000E+00 -4.028102E-03  1.313483E-03  2.665590E-17 -8.419503E-01  0.000000E+00
  9.424820E-01  2.310533E-02  5.000000E-01  9.519961E-01  2.351209E-02  0.000000E+00 -2.449182E-03  7.492963E-04 -5.614462E-17 -9.294067E-01  0.000000E+00
  9.356020E-01  2.517347E-02  5.000000E-01  9.450467E-01  2.560110E-02  0.000000E+00  2.060791E-03 -5.493997E-04 -1.116362E-16 -1.046633E+00  0.000000E+00
  9.282010E-01  2.724802E-02  5.000000E-01  9.375709E-01  2.769659E-02  0.000000E+00  9.431357E-03 -2.469290E-03 -1.164522E-16 -1.143840E+00  0.000000E+00
  9.202710E-01  2.932384E-02  5.000000E-01  9.295609E-01  2.979337E-02  0.000000E+00  1.718514E-02 -4.285139E-03 -6.873124E-17 -1.187479E+00  0.000000E+00
  9.118010E-01  3.138873E-02  5.000000E-01  9.210054E-01  3.187910E-02  0.000000E+00  2.230731E-02 -5.230405E-03  2.936285E-17 -1.183679E+00  0.000000E+00
  9.027810E-01  3.342663E-02  5.000000E-01  9.118943E-01  3.393757E-02  0.000000E+00  2.407571E-02 -5.237410E-03  1.142935E-16 -1.156471E+00  0.000000E+00
  8.932000E-01  3.542176E-02  5.000000E-01  9.022166E-01  3.595284E-02  0.000000E+00  2.386875E-02 -4.767056E-03  9.964003E-17 -1.122404E+00  0.000000E+00
  8.830490E-01  3.735583E-02  5.000000E-01  8.919631E-01  3.790643E-02  0.000000E+00  2.317424E-02 -4.211294E-03  7.124953E-18 -1.086974E+00  0.000000E+00
  8.723190E-01  3.920785E-02  5.000000E-01  8.811248E-01  3.977715E-02  0.000000E+00  2.263981E-02 -3.704807E-03 -7.838336E-17 -1.050855E+00  0.000000E+00
  8.723190E-01  3.920785E-02  5.000000E-01  8.811248E-01  3.977715E-02  0.000000E+00  2.263981E-02 -3.704807E-03 -7.838336E-17 -1.050855E+00  0.000000E+00
  8.610010E-01  4.095712E-02  5.000000E-01  8.696926E-01  4.154408E-02  0.000000E+00  2.229207E-02 -3.245777E-03 -9.339767E-17 -1.013817E+00  0.000000E+00
  8.490890E-01  4.258437E-02  5.000000E-01  8.576603E-01  4.318776E-02  0.000000E+00  2.197092E-02 -2.808745E-03 -5.029423E-17 -9.759373E-01  0.000000E+00
  8.365770E-01  4.407378E-02  5.000000E-01  8.450220E-01  4.469220E-02  0.000000E+00  2.155771E-02 -2.389274E-03 -3.158036E-18 -9.381719E-01  0.000000E+00
  8.234620E-01  4.541896E-02  5.000000E-01  8.317746E-01  4.605097E-02  0.000000E+00  2.102407E-02 -2.006639E-03  2.021383E-17 -9.027800E-01  0.000000E+00
  8.097400E-01  4.662937E-02  5.000000E-01  8.179141E-01  4.727360E-02  0.000000E+00  2.040442E-02 -1.695211E-03  1.782590E-17 -8.736215E-01  0.000000E+00
  7.954150E-01  4.774218E-02  5.000000E-01  8.034445E-01  4.839764E-02  0.000000E+00  1.976471E-02 -1.496454E-03  4.025155E-19 -8.556845E-01  0.000000E+00
  7.804870E-01  4.883591E-02  5.000000E-01  7.883658E-01  4.950241E-02  0.000000E+00  1.920884E-02 -1.437626E-03 -1.969730E-17 -8.524244E-01  0.000000E+00
  7.649630E-01  5.001895E-02  5.000000E-01  7.726851E-01  5.069739E-02  0.000000E+00  1.889629E-02 -1.490539E-03 -3.226461E-17 -8.614517E-01  0.000000E+00
  7.488530E-01  5.133478E-02  5.000000E-01  7.564125E-01  5.202650E-02  0.000000E+00  1.892352E-02 -1.603585E-03 -3.601044E-17 -8.770809E-01  0.000000E+00
  7.321700E-01  5.280027E-02  5.000000E-01  7.395611E-01  5.350678E-02  0.000000E+00  1.923339E-02 -1.751732E-03 -3.500087E-17 -8.953451E-01  0.000000E+00
  7.149290E-01  5.442514E-02  5.000000E-01  7.221460E-01  5.514806E-02  0.000000E+00  1.970441E-02 -1.916492E-03 -3.060136E-17 -9.134387E-01  0.000000E+00
  6.971500E-01  5.620632E-02  5.000000E-01  7.041876E-01  5.694722E-02  0.000000E+00  2.023595E-02 -2.072898E-03 -2.661145E-17 -9.287740E-01  0.000000E+00
  6.788570E-01  5.812107E-02  5.000000E-01  6.857099E-01  5.888130E-02  0.000000E+00  2.077582E-02 -2.189611E-03 -2.551876E-17 -9.387510E-01  0.000000E+00
  6.600760E-01  6.011629E-02  5.000000E-01  6.667393E-01  6.089666E-02  0.000000E+00  2.129315E-02 -2.239077E-03 -2.339385E-17 -9.415733E-01  0.000000E+00
  6.408370E-01  6.212049E-02  5.000000E-01  6.473061E-01  6.292109E-02  0.000000E+00  2.173960E-02 -2.218854E-03 -1.966058E-17 -9.377130E-01  0.000000E+00
  6.211780E-01  6.408567E-02  5.000000E-01  6.274486E-01  6.490611E-02  0.000000E+00  2.208399E-02 -2.143443E-03 -1.647109E-17 -9.288668E-01  0.000000E+00
  6.011430E-01  6.597246E-02  5.000000E-01  6.072114E-01  6.681195E-02  0.000000E+00  2.234352E-02 -2.024236E-03 -1.115936E-17 -9.162476E-01  0.000000E+00
  5.807790E-01  6.774486E-02  5.000000E-01  5.866418E-01  6.860223E-02  0.000000E+00  2.254812E-02 -1.872499E-03 -2.952218E-18 -9.008187E-01  0.000000E+00
  5.601410E-01  6.937687E-02  5.000000E-01  5.657955E-01  7.025073E-02  0.000000E+00  2.272371E-02 -1.697095E-03  4.508558E-18 -8.832826E-01  0.000000E+00
  5.392850E-01  7.084381E-02  5.000000E-01  5.447290E-01  7.173247E-02  0.000000E+00  2.288460E-02 -1.504794E-03  8.371143E-18 -8.642688E-01  0.000000E+00
  5.182680E-01  7.212979E-02  5.000000E-01  5.234998E-01  7.303143E-02  0.000000E+00  2.303011E-02 -1.306391E-03  6.805098E-18 -8.447441E-01  0.000000E+00
  4.971500E-01  7.323338E-02  5.000000E-01  5.021686E-01  7.414616E-02  0.000000E+00  2.316703E-02 -1.108960E-03 -1.379032E-18 -8.253844E-01  0.000000E+00
  4.759900E-01  7.415369E-02  5.000000E-01  4.807950E-01  7.507576E-02  0.000000E+00  2.331137E-02 -9.125872E-04 -1.154948E-17 -8.063069E-01  0.000000E+00
  2.733630E-06 -4.855490E-04  5.000000E-01  2.813636E-06 -3.169369E-04  0.000000E+00  4.686380E-04 -1.840573E-02  1.458482E-15  1.096919E+00  0.000000E+00
  4.455870E-05 -1.426487E-03  5.000000E-01  4.506092E-05 -1.267373E-03  0.000000E+00  2.258775E-03 -2.190604E-02  6.946211E-16  1.067589E+00  0.000000E+00
  2.731490E-04 -2.958882E-03  5.000000E-01  2.759588E-04 -2.815238E-03  0.000000E+00  6.593037E-03 -2.486043E-02  7.896905E-17  9.467723E-01  0.000000E+00
  9.950900E-04 -4.913569E-03  5.000000E-01  1.005188E-03 -4.789657E-03  0.000000E+00  1.277741E-02 -2.521998E-02 -7.647239E-16  7.369508E-01  0.000000E+00
  2.349870E-03 -6.988403E-03  5.000000E-01  2.373644E-03 -6.885435E-03  0.000000E+00  1.846852E-02 -2.401699E-02 -1.776652E-15  5.277879E-01  0.000000E+00
  4.254460E-03 -9.116581E-03  5.000000E-01  4.297460E-03 -9.035097E-03  0.000000E+00  2.308448E-02 -2.270171E-02 -2.757988E-15  3.564099E-01  0.000000E+00
  6.687140E-03 -1.123949E-02  5.000000E-01  6.754697E-03 -1.117944E-02  0.000000E+00  2.708528E-02 -2.121572E-02 -3.387911E-15  1.937157E-01  0.000000E+00
  9.634000E-03 -1.331959E-02  5.000000E-01  9.731305E-03 -1.328053E-02  0.000000E+00  3.034949E-02 -1.921529E-02 -3.454487E-15  2.840062E-02  0.000000E+00
  1.310530E-02 -1.528927E-02  5.000000E-01  1.323765E-02 -1.527010E-02  0.000000E+00  3.258114E-02 -1.656246E-02 -3.005854E-15 -1.355044E-01  0.000000E+00
  1.710810E-02 -1.709682E-02  5.000000E-01  1.728085E-02 -1.709589E-02  0.000000E+00  3.384672E-02 -1.378874E-02 -2.295769E-15 -2.755982E-01  0.000000E+00
  2.163760E-02 -1.874282E-02  5.000000E-01  2.185608E-02 -1.875851E-02  0.000000E+00  3.453639E-02 -1.137171E-02 -1.579619E-15 -3.825160E-01  0.000000E+00
  2.669190E-02 -2.023697E-02  5.000000E-01  2.696140E-02 -2.026774E-02  0.000000E+00  3.479525E-02 -9.238415E-03 -9.762534E-16 -4.687359E-01  0.000000E+00
  3.228310E-02 -2.155511E-02  5.000000E-01  3.260904E-02 -2.159919E-02  0.000000E+00  3.458168E-02 -7.265358E-03 -5.067413E-16 -5.439448E-01  0.000000E+00
  3.842170E-02 -2.268517E-02  5.000000E-01  3.880961E-02 -2.274066E-02  0.000000E+00  3.397874E-02 -5.528931E-03 -1.752979E-16 -6.071002E-01  0.000000E+00
  4.511710E-02 -2.362793E-02  5.000000E-01  4.557260E-02 -2.369294E-02  0.000000E+00  3.311473E-02 -4.075086E-03  2.642777E-17 -6.569404E-01  0.000000E+00
  5.237940E-02 -2.438871E-02  5.000000E-01  5.290821E-02 -2.446139E-02  0.000000E+00  3.211186E-02 -2.908595E-03  1.281566E-16 -6.930593E-01  0.000000E+00
  6.021800E-02 -2.498319E-02  5.000000E-01  6.082593E-02 -2.506188E-02  0.000000E+00  3.108851E-02 -2.021586E-03  1.646208E-16 -7.154073E-01  0.000000E+00
  6.864140E-02 -2.543665E-02  5.000000E-01  6.933437E-02 -2.551991E-02  0.000000E+00  3.009545E-02 -1.369711E-03  1.612933E-16 -7.255971E-01  0.000000E+00
  7.765990E-02 -2.577011E-02  5.000000E-01  7.844390E-02 -2.585673E-02  0.000000E+00  2.911807E-02 -9.020209E-04  1.374341E-16 -7.254366E-01  0.000000E+00
  8.728340E-02 -2.600871E-02  5.000000E-01  8.816455E-02 -2.609775E-02  0.000000E+00  2.810639E-02 -5.915667E-04  1.040558E-16 -7.152952E-01  0.000000E+00
  9.752070E-02 -2.618468E-02  5.000000E-01  9.850519E-02 -2.627549E-02  0.000000E+00  2.693638E-02 -4.120660E-04  6.886438E-17 -6.951228E-01  0.000000E+00
  1.083810E-01 -2.632996E-02  5.000000E-01  1.094751E-01 -2.642224E-02  0.000000E+00  2.544980E-02 -3.367458E-04  3.636648E-17 -6.642780E-01  0.000000E+00
  1.198710E-01 -2.648034E-02  5.000000E-01  1.210811E-01 -2.657413E-02  0.000000E+00  2.359414E-02 -3.440505E-04  8.558659E-18 -6.209751E-01  0.000000E+00
  1.319970E-01 -2.667570E-02  5.000000E-01  1.333295E-01 -2.677147E-02  0.000000E+00  2.155309E-02 -4.081498E-04 -1.385208E-17 -5.634840E-01  0.000000E+00
  1.319970E-01 -2.667570E-02  5.000000E-01  1.333295E-01 -2.677147E-02  0.000000E+00  2.155309E-02 -4.081498E-04 -1.385208E-17 -5.634840E-01  0.000000E+00
  1.447640E-01 -2.695350E-02  5.000000E-01  1.462254E-01 -2.705207E-02  0.000000E+00  1.976323E-02 -5.069813E-04 -2.483476E-17 -4.923729E-01  0.000000E+00
  1.581750E-01 -2.734817E-02  5.000000E-01  1.597718E-01 -2.745072E-02  0.000000E+00  1.872113E-02 -6.310179E-04 -2.643989E-17 -4.140227E-01  0.000000E+00
  1.722290E-01 -2.788020E-02  5.000000E-01  1.739676E-01 -2.798813E-02  0.000000E+00  1.867866E-02 -7.696349E-04 -2.654456E-17 -3.427525E-01  0.000000E+00
  1.869240E-01 -2.853659E-02  5.000000E-01  1.888110E-01 -2.865115E-02  0.000000E+00  1.948725E-02 -8.785798E-04 -2.540041E-17 -2.969781E-01  0.000000E+00
  2.022540E-01 -2.924509E-02  5.000000E-01  2.042957E-01 -2.936680E-02  0.000000E+00  2.068615E-02 -8.552099E-04 -2.477290E-17 -2.903868E-01  0.000000E+00
  2.182110E-01 -2.984318E-02  5.000000E-01  2.204138E-01 -2.997093E-02  0.000000E+00  2.178717E-02 -6.415771E-04 -3.008309E-17 -3.195630E-01  0.000000E+00
  2.347810E-01 -3.020375E-02  5.000000E-01  2.371511E-01 -3.033514E-02  0.000000E+00  2.249670E-02 -3.207679E-04 -4.438218E-17 -3.633356E-01  0.000000E+00
  2.519470E-01 -3.031658E-02  5.000000E-01  2.544904E-01 -3.044910E-02  0.000000E+00  2.264869E-02  3.295179E-06 -6.431664E-17 -4.011168E-01  0.000000E+00
  2.696890E-01 -3.019003E-02  5.000000E-01  2.724115E-01 -3.032128E-02  0.000000E+00  2.219029E-02  2.779098E-04 -8.071409E-17 -4.220187E-01  0.000000E+00
  2.879810E-01 -2.985492E-02  5.000000E-01  2.908881E-01 -2.998278E-02  0.000000E+00  2.128915E-02  4.636494E-04 -8.387244E-17 -4.213497E-01  0.000000E+00
  3.067920E-01 -2.937202E-02  5.000000E-01  3.098890E-01 -2.949501E-02  0.000000E+00  2.029416E-02  5.411953E-04 -7.057124E-17 -3.999988E-01  0.000000E+00
  3.260870E-01 -2.883197E-02  5.000000E-01  3.293788E-01 -2.894950E-02  0.000000E+00  1.956103E-02  5.213799E-04 -4.826016E-17 -3.650597E-01  0.000000E+00
  3.458260E-01 -2.833350E-02  5.000000E-01  3.493171E-01 -2.844600E-02  0.000000E+00  1.923962E-02  4.650334E-04 -2.904209E-17 -3.302426E-01  0.000000E+00
  3.659650E-01 -2.787640E-02  5.000000E-01  3.696594E-01 -2.798429E-02  0.000000E+00  1.925708E-02  4.407510E-04 -1.784217E-17 -3.083423E-01  0.000000E+00
  3.864540E-01 -2.741006E-02  5.000000E-01  3.903552E-01 -2.751325E-02  0.000000E+00  1.944883E-02  4.709031E-04 -1.560509E-17 -3.026052E-01  0.000000E+00
  4.072410E-01 -2.687976E-02  5.000000E-01  4.113520E-01 -2.697759E-02  0.000000E+00  1.961058E-02  5.538133E-04 -2.555335E-17 -3.084887E-01  0.000000E+00
  4.282690E-01 -2.623009E-02  5.000000E-01  4.325923E-01 -2.632136E-02  0.000000E+00  1.952835E-02  6.812060E-04 -4.811124E-17 -3.182119E-01  0.000000E+00
  4.494800E-01 -2.540395E-02  5.000000E-01  4.540174E-01 -2.548688E-02  0.000000E+00  1.907059E-02  8.248850E-04 -7.087677E-17 -3.226374E-01  0.000000E+00
  4.708130E-01 -2.438144E-02  5.000000E-01  4.755658E-01 -2.445405E-02  0.000000E+00  1.827034E-02  9.414031E-04 -7.758262E-17 -3.134839E-01  0.000000E+00
  4.922030E-01 -2.319230E-02  5.000000E-01  4.971717E-01 -2.325291E-02  0.000000E+00  1.729321E-02  1.012995E-03 -6.478280E-17 -2.880154E-01  0.000000E+00
  5.135860E-01 -2.186880E-02  5.000000E-01  5.187705E-01 -2.191605E-02  0.000000E+00  1.634542E-02  1.052375E-03 -4.066883E-17 -2.502252E-01  0.000000E+00
  5.348990E-01 -2.044029E-02  5.000000E-01  5.402987E-01 -2.047311E-02  0.000000E+00  1.558855E-02  1.075922E-03 -1.853220E-17 -2.077430E-01  0.000000E+00
  5.560760E-01 -1.893738E-02  5.000000E-01  5.616895E-01 -1.895503E-02  0.000000E+00  1.506857E-02  1.097797E-03 -5.132876E-18 -1.687338E-01  0.000000E+00
  4.759900E-01  7.415369E-02  5.000000E-01  4.807950E-01  7.507576E-02  0.000000E+00  2.331137E-02 -9.125872E-04 -1.154948E-17 -8.063069E-01  0.000000E+00
  4.548480E-01  7.488964E-02  5.000000E-01  4.594396E-01  7.581914E-02  0.000000E+00  2.347056E-02 -7.169463E-04 -2.373384E-17 -7.874731E-01  0.000000E+00
  4.337860E-01  7.544310E-02  5.000000E-01  4.381650E-01  7.637819E-02  0.000000E+00  2.364615E-02 -5.188111E-04 -3.682965E-17 -7.684718E-01  0.000000E+00
  4.128620E-01  7.581205E-02  5.000000E-01  4.170298E-01  7.675087E-02  0.000000E+00  2.383964E-02 -3.067006E-04 -4.524359E-17 -7.481779E-01  0.000000E+00
  3.921340E-01  7.598118E-02  5.000000E-01  3.960925E-01  7.692170E-02  0.000000E+00  2.403736E-02 -6.970273E-05 -4.822103E-17 -7.254221E-01  0.000000E+00
  3.716590E-01  7.593410E-02  5.000000E-01  3.754108E-01  7.687415E-02  0.000000E+00  2.420857E-02  1.955845E-04 -4.612771E-17 -6.995766E-01  0.000000E+00
  3.514890E-01  7.565586E-02  5.000000E-01  3.550372E-01  7.659309E-02  0.000000E+00  2.432270E-02  4.879681E-04 -3.791411E-17 -6.705103E-01  0.000000E+00
  3.316730E-01  7.513547E-02  5.000000E-01  3.350212E-01  7.606745E-02  0.000000E+00  2.435439E-02  7.999083E-04 -2.474692E-17 -6.388498E-01  0.000000E+00
  3.122580E-01  7.437007E-02  5.000000E-01  3.154102E-01  7.529433E-02  0.000000E+00  2.427920E-02  1.109896E-03 -1.174897E-17 -6.064899E-01  0.000000E+00
  2.932850E-01  7.338184E-02  5.000000E-01  2.962457E-01  7.429612E-02  0.000000E+00  2.409287E-02  1.395897E-03 -3.077313E-19 -5.756174E-01  0.000000E+00
  2.747930E-01  7.220049E-02  5.000000E-01  2.775670E-01  7.310285E-02  0.000000E+00  2.382380E-02  1.652997E-03  7.447423E-18 -5.473409E-01  0.000000E+00
  2.568150E-01  7.085283E-02  5.000000E-01  2.594075E-01  7.174158E-02  0.000000E+00  2.351002E-02  1.886205E-03  1.250342E-17 -5.219598E-01  0.000000E+00
  2.393810E-01  6.936159E-02  5.000000E-01  2.417975E-01  7.023528E-02  0.000000E+00  2.318572E-02  2.103418E-03  1.448055E-17 -4.996956E-01  0.000000E+00
  2.225160E-01  6.774529E-02  5.000000E-01  2.247623E-01  6.860267E-02  0.000000E+00  2.287834E-02  2.310450E-03  1.440222E-17 -4.817770E-01  0.000000E+00
  2.062420E-01  6.601827E-02  5.000000E-01  2.083240E-01  6.685821E-02  0.000000E+00  2.259080E-02  2.478948E-03  1.503991E-17 -4.730542E-01  0.000000E+00
  1.905750E-01  6.423718E-02  5.000000E-01  1.924988E-01  6.505915E-02  0.000000E+00  2.234393E-02  2.552073E-03  1.594198E-17 -4.808111E-01  0.000000E+00
  1.755290E-01  6.250557E-02  5.000000E-01  1.773010E-01  6.331006E-02  0.000000E+00  2.228482E-02  2.549513E-03  1.510306E-17 -5.056793E-01  0.000000E+00
  1.611160E-01  6.086608E-02  5.000000E-01  1.627425E-01  6.165402E-02  0.000000E+00  2.259532E-02  2.552807E-03  1.160651E-17 -5.406592E-01  0.000000E+00
  1.473410E-01  5.932157E-02  5.000000E-01  1.488284E-01  6.009392E-02  0.000000E+00  2.331295E-02  2.610510E-03  8.011262E-18 -5.780803E-01  0.000000E+00
  1.342110E-01  5.785479E-02  5.000000E-01  1.355659E-01  5.861233E-02  0.000000E+00  2.432304E-02  2.737859E-03  6.479919E-19 -6.124226E-01  0.000000E+00
  1.217280E-01  5.644033E-02  5.000000E-01  1.229569E-01  5.718359E-02  0.000000E+00  2.544825E-02  2.934865E-03 -2.099671E-17 -6.410170E-01  0.000000E+00
  1.098910E-01  5.505260E-02  5.000000E-01  1.110004E-01  5.578186E-02  0.000000E+00  2.655545E-02  3.207125E-03 -5.753759E-17 -6.628626E-01  0.000000E+00
  9.869950E-02  5.366287E-02  5.000000E-01  9.969589E-02  5.437809E-02  0.000000E+00  2.759419E-02  3.569980E-03 -9.282413E-17 -6.775954E-01  0.000000E+00
  8.814970E-02  5.224470E-02  5.000000E-01  8.903960E-02  5.294561E-02  0.000000E+00  2.857848E-02  4.049407E-03 -1.436400E-16 -6.847535E-01  0.000000E+00
  8.814970E-02  5.224470E-02  5.000000E-01  8.903960E-02  5.294561E-02  0.000000E+00  2.857848E-02  4.049407E-03 -1.436400E-16 -6.847535E-01  0.000000E+00
  7.823720E-02  5.077044E-02  5.000000E-01  7.902703E-02  5.145647E-02  0.000000E+00  2.954886E-02  4.688319E-03 -2.130263E-16 -6.830478E-01  0.000000E+00
  6.895800E-02  4.920867E-02  5.000000E-01  6.965416E-02  4.987893E-02  0.000000E+00  3.051716E-02  5.528694E-03 -2.800340E-16 -6.709741E-01  0.000000E+00
  6.030560E-02  4.753314E-02  5.000000E-01  6.091442E-02  4.818648E-02  0.000000E+00  3.146765E-02  6.624920E-03 -3.331233E-16 -6.460653E-01  0.000000E+00
  5.227560E-02  4.571137E-02  5.000000E-01  5.280336E-02  4.634633E-02  0.000000E+00  3.234127E-02  8.038189E-03 -3.436241E-16 -6.048079E-01  0.000000E+00
  4.486350E-02  4.371249E-02  5.000000E-01  4.531644E-02  4.432727E-02  0.000000E+00  3.299706E-02  9.789693E-03 -2.965395E-16 -5.441718E-01  0.000000E+00
  3.806240E-02  4.151432E-02  5.000000E-01  3.844668E-02  4.210690E-02  0.000000E+00  3.325007E-02  1.187694E-02 -1.865339E-16 -4.602779E-01  0.000000E+00
  3.186880E-02  3.909232E-02  5.000000E-01  3.219056E-02  3.966046E-02  0.000000E+00  3.285654E-02  1.420799E-02 -7.165541E-18 -3.499314E-01  0.000000E+00
  2.627530E-02  3.643688E-02  5.000000E-01  2.654059E-02  3.697821E-02  0.000000E+00  3.156228E-02  1.655727E-02  2.292308E-16 -2.123570E-01  0.000000E+00
  2.127350E-02  3.355039E-02  5.000000E-01  2.148830E-02  3.406259E-02  0.000000E+00  2.924150E-02  1.864998E-02  4.660251E-16 -4.760792E-02  0.000000E+00
  1.685790E-02  3.044000E-02  5.000000E-01  1.702813E-02  3.092080E-02  0.000000E+00  2.594280E-02  2.012930E-02  6.172812E-16  1.387601E-01  0.000000E+00
  1.301460E-02  2.714084E-02  5.000000E-01  1.314603E-02  2.758833E-02  0.000000E+00  2.192435E-02  2.070478E-02  6.260162E-16  3.371546E-01  0.000000E+00
  9.730790E-03  2.369824E-02  5.000000E-01  9.829072E-03  2.411098E-02  0.000000E+00  1.758635E-02  2.030654E-02  5.096600E-16  5.385170E-01  0.000000E+00
  6.996180E-03  2.016718E-02  5.000000E-01  7.066857E-03  2.054427E-02  0.000000E+00  1.333546E-02  1.891477E-02  3.473492E-16  7.278320E-01  0.000000E+00
  4.781010E-03  1.663910E-02  5.000000E-01  4.829325E-03  1.698058E-02  0.000000E+00  9.485320E-03  1.662370E-02  2.123753E-16  8.915006E-01  0.000000E+00
  3.054950E-03  1.320951E-02  5.000000E-01  3.085841E-03  1.351637E-02  0.000000E+00  6.194684E-03  1.364874E-02  1.267683E-16  1.024940E+00  0.000000E+00
  1.789910E-03  9.973558E-03  5.000000E-01  1.808031E-03  1.024775E-02  0.000000E+00  3.552406E-03  1.011980E-02  8.733140E-17  1.123535E+00  0.000000E+00
  9.331870E-04  7.040287E-03  5.000000E-01  9.426596E-04  7.284870E-03  0.000000E+00  1.620703E-03  6.118757E-03  7.416350E-17  1.183567E+00  0.000000E+00
  4.085430E-04  4.518197E-03  5.000000E-01  4.127195E-04  4.737320E-03  0.000000E+00  3.811615E-04  1.735015E-03  4.215617E-17  1.207881E+00  0.000000E+00
  1.354760E-04  2.494559E-03  5.000000E-01  1.368960E-04  2.693254E-03  0.000000E+00 -2.396885E-04 -2.994094E-03 -1.303300E-17  1.204190E+00  0.000000E+00
  2.683130E-05  1.021514E-03  5.000000E-01  2.715456E-05  1.205339E-03  0.000000E+00 -3.441453E-04 -8.061917E-03  1.408354E-16  1.180839E+00  0.000000E+00
  1.320070E-06  1.276971E-04  5.000000E-01  1.385807E-06  3.024997E-04  0.000000E+00 -2.077767E-04 -1.298708E-02  7.786393E-16  1.140479E+00  0.000000E+00
 -5.188750E-08 -1.717795E-04  5.000000E-01  0.000000E+00  0.000000E+00  0.000000E+00 -4.372905E-05 -1.611278E-02  1.605774E-15  1.105512E+00  0.000000E+00