 Title = "ADflow Slice Data"
Variables =  "CoordinateX"  "CoordinateY"  "CoordinateZ"  "XoC"  "YoC"  "ZoC" "VelocityX" "VelocityY" "VelocityZ" "CoefPressure" "Mach" 
Zone T= "Slice_0001 None Absolute Regular z = 0.50000000"
 Nodes =          192  Elements=          184  ZONETYPE=FELINESEG
 DATAPACKING=POINT
  5.560760E-01 -1.893781E-02  5.000000E-01  5.616895E-01 -1.895553E-02  0.000000E+00  1.506868E-02  1.097950E-03 -2.489556E-19 -1.688343E-01  0.000000E+00
  5.770550E-01 -1.737442E-02  5.000000E-01  5.828802E-01 -1.737635E-02  0.000000E+00  1.470182E-02  1.131771E-03  5.508955E-19 -1.386837E-01  0.000000E+00
  5.977760E-01 -1.573231E-02  5.000000E-01  6.038104E-01 -1.571768E-02  0.000000E+00  1.434277E-02  1.180851E-03  1.855957E-18 -1.170009E-01  0.000000E+00
  6.181820E-01 -1.398877E-02  5.000000E-01  6.244224E-01 -1.395653E-02  0.000000E+00  1.385742E-02  1.236236E-03  1.885078E-18 -9.823609E-02  0.000000E+00
  6.382180E-01 -1.212038E-02  5.000000E-01  6.446607E-01 -1.206928E-02  0.000000E+00  1.316993E-02  1.283422E-03  1.742263E-18 -7.582094E-02  0.000000E+00
  6.578350E-01 -1.011701E-02  5.000000E-01  6.644757E-01 -1.004569E-02  0.000000E+00  1.227763E-02  1.305816E-03  1.791430E-18 -4.550004E-02  0.000000E+00
  6.769910E-01 -7.988790E-03  5.000000E-01  6.838251E-01 -7.895983E-03  0.000000E+00  1.122691E-02  1.293006E-03  3.709338E-19 -7.107695E-03  0.000000E+00
  6.956490E-01 -5.755827E-03  5.000000E-01  7.026714E-01 -5.640479E-03  0.000000E+00  1.007979E-02  1.241610E-03  8.789504E-19  3.661974E-02  0.000000E+00
  7.137810E-01 -3.452016E-03  5.000000E-01  7.209864E-01 -3.313411E-03  0.000000E+00  8.893573E-03  1.152794E-03  6.878394E-19  8.248886E-02  0.000000E+00
  7.313660E-01 -1.122414E-03  5.000000E-01  7.387490E-01 -9.602930E-04  0.000000E+00  7.710941E-03  1.034565E-03 -1.272519E-18  1.279024E-01  0.000000E+00
  7.483850E-01  1.193170E-03  5.000000E-01  7.559398E-01  1.378666E-03  0.000000E+00  6.566884E-03  9.010913E-04 -8.964506E-19  1.711428E-01  0.000000E+00
  7.648220E-01  3.468969E-03  5.000000E-01  7.725427E-01  3.677439E-03  0.000000E+00  5.506202E-03  7.667213E-04  3.074692E-18  2.113046E-01  0.000000E+00
  7.806630E-01  5.687371E-03  5.000000E-01  7.885436E-01  5.918235E-03  0.000000E+00  4.598015E-03  6.370787E-04  5.183805E-18  2.487287E-01  0.000000E+00
  7.958970E-01  7.780578E-03  5.000000E-01  8.039314E-01  8.032572E-03  0.000000E+00  3.934508E-03  5.116509E-04  2.549025E-18  2.849731E-01  0.000000E+00
  8.105170E-01  9.565469E-03  5.000000E-01  8.186990E-01  9.835481E-03  0.000000E+00  3.577883E-03  3.980739E-04  1.931317E-18  3.173531E-01  0.000000E+00
  8.245160E-01  1.095069E-02  5.000000E-01  8.328393E-01  1.123468E-02  0.000000E+00  3.515193E-03  3.037841E-04  1.906150E-18  3.405180E-01  0.000000E+00
  8.378940E-01  1.193445E-02  5.000000E-01  8.463523E-01  1.222838E-02  0.000000E+00  3.685529E-03  2.240034E-04  1.197083E-18  3.539533E-01  0.000000E+00
  8.506490E-01  1.255933E-02  5.000000E-01  8.592361E-01  1.285956E-02  0.000000E+00  4.023031E-03  1.496518E-04  1.092403E-18  3.606169E-01  0.000000E+00
  8.627850E-01  1.288389E-02  5.000000E-01  8.714946E-01  1.318741E-02  0.000000E+00  4.473507E-03  7.356017E-05 -1.618870E-20  3.630398E-01  0.000000E+00
  8.743060E-01  1.296785E-02  5.000000E-01  8.831319E-01  1.327221E-02  0.000000E+00  4.993235E-03 -8.152265E-06  4.459187E-19  3.623673E-01  0.000000E+00
  8.852170E-01  1.286289E-02  5.000000E-01  8.941530E-01  1.316619E-02  0.000000E+00  5.547842E-03 -9.687146E-05  1.426950E-18  3.592408E-01  0.000000E+00
  8.955250E-01  1.261000E-02  5.000000E-01  9.045651E-01  1.291074E-02  0.000000E+00  6.113203E-03 -1.925981E-04  1.235410E-18  3.541861E-01  0.000000E+00
  9.052400E-01  1.224212E-02  5.000000E-01  9.143782E-01  1.253915E-02  0.000000E+00  6.675991E-03 -2.953096E-04  9.428159E-19  3.476116E-01  0.000000E+00
  9.143710E-01  1.178489E-02  5.000000E-01  9.236013E-01  1.207731E-02  0.000000E+00  7.235011E-03 -4.078016E-04  1.754270E-18  3.399497E-01  0.000000E+00
  9.143710E-01  1.178489E-02  5.000000E-01  9.236013E-01  1.207731E-02  0.000000E+00  7.235011E-03 -4.078016E-04  1.754270E-18  3.399497E-01  0.000000E+00
  9.229270E-01  1.125316E-02  5.000000E-01  9.322437E-01  1.154021E-02  0.000000E+00  7.800623E-03 -5.356267E-04  2.705279E-18  3.314396E-01  0.000000E+00
  9.309180E-01  1.065617E-02  5.000000E-01  9.403154E-01  1.093719E-02  0.000000E+00  8.390254E-03 -6.840714E-04  1.921541E-18  3.218285E-01  0.000000E+00
  9.383550E-01  1.000251E-02  5.000000E-01  9.478274E-01  1.027693E-02  0.000000E+00  9.024673E-03 -8.580796E-04 -1.315792E-21  3.106507E-01  0.000000E+00
  9.452490E-01  9.300927E-03  5.000000E-01  9.547910E-01  9.568269E-03  0.000000E+00  9.727529E-03 -1.064411E-03 -2.507430E-18  2.975215E-01  0.000000E+00
  9.516100E-01  8.559832E-03  5.000000E-01  9.612163E-01  8.819692E-03  0.000000E+00  1.052545E-02 -1.311702E-03 -7.648175E-18  2.820412E-01  0.000000E+00
  9.574470E-01  7.788715E-03  5.000000E-01  9.671122E-01  8.040791E-03  0.000000E+00  1.144620E-02 -1.608845E-03 -6.890968E-18  2.636088E-01  0.000000E+00
  9.627730E-01  6.998800E-03  5.000000E-01  9.724919E-01  7.242902E-03  0.000000E+00  1.251810E-02 -1.965371E-03  2.224611E-17  2.415374E-01  0.000000E+00
  9.675950E-01  6.203511E-03  5.000000E-01  9.773626E-01  6.439585E-03  0.000000E+00  1.377236E-02 -2.390853E-03  8.304920E-17  2.151070E-01  0.000000E+00
  9.719240E-01  5.417945E-03  5.000000E-01  9.817353E-01  5.646089E-03  0.000000E+00  1.524962E-02 -2.895576E-03  8.842565E-17  1.834899E-01  0.000000E+00
  9.757700E-01  4.658512E-03  5.000000E-01  9.856201E-01  4.878990E-03  0.000000E+00  1.701355E-02 -3.495957E-03 -1.834558E-16  1.458553E-01  0.000000E+00
  9.791410E-01  3.941736E-03  5.000000E-01  9.890252E-01  4.154978E-03  0.000000E+00  1.916369E-02 -4.217504E-03 -8.697989E-16  1.013034E-01  0.000000E+00
  9.820450E-01  3.283523E-03  5.000000E-01  9.919585E-01  3.490121E-03  0.000000E+00  2.181840E-02 -5.091594E-03 -1.234220E-15  4.849082E-02  0.000000E+00
  9.844890E-01  2.698644E-03  5.000000E-01  9.944272E-01  2.899337E-03  0.000000E+00  2.504188E-02 -6.142535E-03  1.281969E-15 -1.428841E-02  0.000000E+00
  9.864800E-01  2.200414E-03  5.000000E-01  9.964383E-01  2.396078E-03  0.000000E+00  2.876268E-02 -7.325785E-03  9.562830E-15 -8.747857E-02  0.000000E+00
  9.880230E-01  1.800563E-03  5.000000E-01  9.979968E-01  1.992190E-03  0.000000E+00  3.246808E-02 -8.443301E-03  1.736338E-14 -1.780489E-01  0.000000E+00
  9.891220E-01  1.508338E-03  5.000000E-01  9.991069E-01  1.697015E-03  0.000000E+00  3.593995E-02 -9.726751E-03 -1.072287E-14 -2.868375E-01  0.000000E+00
  9.897810E-01  1.330286E-03  5.000000E-01  9.997726E-01  1.517167E-03  0.000000E+00  5.278674E-02 -1.244102E-02 -1.276171E-13 -3.055869E-01  0.000000E+00
  9.900000E-01  1.270515E-03  5.000000E-01  9.999938E-01  1.456791E-03  0.000000E+00  3.651269E-02 -2.258501E-03 -1.079024E-13 -6.802720E-01  0.000000E+00
  9.900000E-01  1.680014E-03  5.000000E-01  9.999938E-01  1.870425E-03  0.000000E+00  2.126992E-03 -7.785294E-03  2.484906E-14 -9.796226E-01  0.000000E+00
  9.900000E-01  2.089514E-03  5.000000E-01  9.999938E-01  2.284059E-03  0.000000E+00 -5.416037E-04 -2.193720E-02  6.943645E-14 -8.243797E-01  0.000000E+00
  9.900000E-01  2.499014E-03  5.000000E-01  9.999938E-01  2.697693E-03  0.000000E+00 -1.399424E-04 -1.349555E-02  9.876316E-14 -7.967002E-01  0.000000E+00
  9.900000E-01  2.908499E-03  5.000000E-01  9.999938E-01  3.111311E-03  0.000000E+00  3.199395E-04 -8.318856E-03  1.158331E-13 -8.266227E-01  0.000000E+00
  9.900000E-01  3.317999E-03  5.000000E-01  9.999938E-01  3.524945E-03  0.000000E+00  4.463360E-03 -6.752205E-03  1.272231E-13 -7.913410E-01  0.000000E+00
  9.900000E-01  3.317999E-03  5.000000E-01  9.999938E-01  3.524945E-03  0.000000E+00  4.463360E-03 -6.752205E-03  1.272231E-13 -7.913410E-01  0.000000E+00
  9.897980E-01  3.422043E-03  5.000000E-01  9.997897E-01  3.630038E-03  0.000000E+00  5.424487E-03 -3.331835E-03  1.187405E-13 -7.431459E-01  0.000000E+00
  9.891900E-01  3.734167E-03  5.000000E-01  9.991756E-01  3.945314E-03  0.000000E+00  1.113613E-03 -5.083717E-04  8.445043E-14 -7.512229E-01  0.000000E+00
  9.881780E-01  4.253686E-03  5.000000E-01  9.981534E-01  4.470077E-03  0.000000E+00 -1.279117E-03  6.592280E-04  4.656209E-14 -7.583641E-01  0.000000E+00
  9.867570E-01  4.979296E-03  5.000000E-01  9.967181E-01  5.203012E-03  0.000000E+00 -2.639576E-03  1.332794E-03  1.901861E-14 -7.652657E-01  0.000000E+00
  9.849260E-01  5.907478E-03  5.000000E-01  9.948686E-01  6.140564E-03  0.000000E+00 -3.243696E-03  1.634167E-03  4.520059E-15 -7.750922E-01  0.000000E+00
  9.826810E-01  7.031745E-03  5.000000E-01  9.926009E-01  7.276179E-03  0.000000E+00 -3.246149E-03  1.615152E-03 -7.423938E-16 -7.842719E-01  0.000000E+00
  9.800160E-01  8.342349E-03  5.000000E-01  9.899090E-01  8.600014E-03  0.000000E+00 -2.936269E-03  1.429585E-03 -1.505347E-15 -7.898633E-01  0.000000E+00
  9.769240E-01  9.825213E-03  5.000000E-01  9.867858E-01  1.009785E-02  0.000000E+00 -2.611543E-03  1.232356E-03 -9.138193E-16 -7.920213E-01  0.000000E+00
  9.733970E-01  1.145919E-02  5.000000E-01  9.832232E-01  1.174832E-02  0.000000E+00 -2.458110E-03  1.111306E-03 -3.292941E-16 -7.927641E-01  0.000000E+00
  9.694240E-01  1.321779E-02  5.000000E-01  9.792101E-01  1.352467E-02  0.000000E+00 -2.534049E-03  1.089905E-03 -4.594383E-17 -7.940061E-01  0.000000E+00
  9.649940E-01  1.507429E-02  5.000000E-01  9.747354E-01  1.539991E-02  0.000000E+00 -2.836214E-03  1.160801E-03  2.913326E-17 -7.953835E-01  0.000000E+00
  9.600960E-01  1.700849E-02  5.000000E-01  9.697879E-01  1.735364E-02  0.000000E+00 -3.355800E-03  1.293822E-03  2.533940E-17 -7.958645E-01  0.000000E+00
  9.547180E-01  1.900026E-02  5.000000E-01  9.643556E-01  1.936551E-02  0.000000E+00 -3.947208E-03  1.403283E-03  1.097553E-17 -8.037503E-01  0.000000E+00
  9.488510E-01  2.103022E-02  5.000000E-01  9.584294E-01  2.141596E-02  0.000000E+00 -4.019714E-03  1.308878E-03  4.107854E-18 -8.427277E-01  0.000000E+00
  9.424820E-01  2.308315E-02  5.000000E-01  9.519961E-01  2.348962E-02  0.000000E+00 -2.406565E-03  7.357004E-04  4.086209E-18 -9.308160E-01  0.000000E+00
  9.356020E-01  2.514860E-02  5.000000E-01  9.450467E-01  2.557591E-02  0.000000E+00  2.148155E-03 -5.730458E-04  1.105401E-17 -1.048086E+00  0.000000E+00
  9.282010E-01  2.722044E-02  5.000000E-01  9.375709E-01  2.766867E-02  0.000000E+00  9.544346E-03 -2.496562E-03  2.362716E-17 -1.144663E+00  0.000000E+00
  9.202710E-01  2.929361E-02  5.000000E-01  9.295609E-01  2.976277E-02  0.000000E+00  1.727656E-02 -4.303623E-03  3.488981E-17 -1.187537E+00  0.000000E+00
  9.118010E-01  3.135596E-02  5.000000E-01  9.210054E-01  3.184594E-02  0.000000E+00  2.234650E-02 -5.233930E-03  3.787422E-17 -1.183302E+00  0.000000E+00
  9.027810E-01  3.339153E-02  5.000000E-01  9.118943E-01  3.390206E-02  0.000000E+00  2.407340E-02 -5.231323E-03  3.250566E-17 -1.155991E+00  0.000000E+00
  8.932000E-01  3.538465E-02  5.000000E-01  9.022166E-01  3.591530E-02  0.000000E+00  2.385016E-02 -4.758908E-03  2.414399E-17 -1.121979E+00  0.000000E+00
  8.830490E-01  3.731713E-02  5.000000E-01  8.919632E-01  3.786729E-02  0.000000E+00  2.315515E-02 -4.204891E-03  1.810058E-17 -1.086657E+00  0.000000E+00
  8.723190E-01  3.916815E-02  5.000000E-01  8.811248E-01  3.973700E-02  0.000000E+00  2.262453E-02 -3.700960E-03  1.451347E-17 -1.050669E+00  0.000000E+00
  8.723190E-01  3.916815E-02  5.000000E-01  8.811248E-01  3.973700E-02  0.000000E+00  2.262453E-02 -3.700960E-03  1.451347E-17 -1.050669E+00  0.000000E+00
  8.610010E-01  4.091716E-02  5.000000E-01  8.696926E-01  4.150366E-02  0.000000E+00  2.227998E-02 -3.244358E-03  1.147522E-17 -1.013784E+00  0.000000E+00
  8.490890E-01  4.254507E-02  5.000000E-01  8.576603E-01  4.314800E-02  0.000000E+00  2.196111E-02 -2.809613E-03  9.450819E-18 -9.760838E-01  0.000000E+00
  8.365770E-01  4.403621E-02  5.000000E-01  8.450220E-01  4.465420E-02  0.000000E+00  2.155039E-02 -2.392387E-03  8.749144E-18 -9.385212E-01  0.000000E+00
  8.234620E-01  4.538436E-02  5.000000E-01  8.317746E-01  4.601595E-02  0.000000E+00  2.102019E-02 -2.011864E-03  9.471311E-18 -9.033426E-01  0.000000E+00
  8.097400E-01  4.659899E-02  5.000000E-01  8.179141E-01  4.724285E-02  0.000000E+00  2.040503E-02 -1.702157E-03  1.058415E-17 -8.743769E-01  0.000000E+00
  7.954150E-01  4.771711E-02  5.000000E-01  8.034445E-01  4.837225E-02  0.000000E+00  1.977049E-02 -1.504398E-03  9.964019E-18 -8.565635E-01  0.000000E+00
  7.804870E-01  4.881671E-02  5.000000E-01  7.883658E-01  4.948295E-02  0.000000E+00  1.921965E-02 -1.445624E-03  7.895653E-18 -8.533162E-01  0.000000E+00
  7.649630E-01  5.000529E-02  5.000000E-01  7.726851E-01  5.068352E-02  0.000000E+00  1.891058E-02 -1.497894E-03  6.007623E-18 -8.622543E-01  0.000000E+00
  7.488530E-01  5.132596E-02  5.000000E-01  7.564125E-01  5.201753E-02  0.000000E+00  1.893874E-02 -1.609982E-03  3.245701E-18 -8.777366E-01  0.000000E+00
  7.321700E-01  5.279543E-02  5.000000E-01  7.395611E-01  5.350183E-02  0.000000E+00  1.924718E-02 -1.756958E-03 -1.925981E-18 -8.958302E-01  0.000000E+00
  7.149290E-01  5.442331E-02  5.000000E-01  7.221460E-01  5.514615E-02  0.000000E+00  1.971539E-02 -1.920389E-03 -8.066192E-18 -9.137540E-01  0.000000E+00
  6.971500E-01  5.620651E-02  5.000000E-01  7.041876E-01  5.694735E-02  0.000000E+00  2.024376E-02 -2.075452E-03 -1.223142E-17 -9.289403E-01  0.000000E+00
  6.788570E-01  5.812236E-02  5.000000E-01  6.857099E-01  5.888254E-02  0.000000E+00  2.078070E-02 -2.191008E-03 -1.571915E-17 -9.388037E-01  0.000000E+00
  6.600760E-01  6.011803E-02  5.000000E-01  6.667393E-01  6.089836E-02  0.000000E+00  2.129571E-02 -2.239660E-03 -1.916431E-17 -9.415531E-01  0.000000E+00
  6.408370E-01  6.212234E-02  5.000000E-01  6.473061E-01  6.292289E-02  0.000000E+00  2.174065E-02 -2.218942E-03 -1.990147E-17 -9.376511E-01  0.000000E+00
  6.211780E-01  6.408738E-02  5.000000E-01  6.274486E-01  6.490778E-02  0.000000E+00  2.208434E-02 -2.143229E-03 -1.910866E-17 -9.287801E-01  0.000000E+00
  6.011430E-01  6.597387E-02  5.000000E-01  6.072114E-01  6.681330E-02  0.000000E+00  2.234362E-02 -2.023849E-03 -1.851546E-17 -9.161466E-01  0.000000E+00
  5.807790E-01  6.774585E-02  5.000000E-01  5.866418E-01  6.860318E-02  0.000000E+00  2.254812E-02 -1.872043E-03 -1.706741E-17 -9.007124E-01  0.000000E+00
  5.601410E-01  6.937745E-02  5.000000E-01  5.657955E-01  7.025124E-02  0.000000E+00  2.272358E-02 -1.696664E-03 -1.474593E-17 -8.831802E-01  0.000000E+00
  5.392850E-01  7.084403E-02  5.000000E-01  5.447290E-01  7.173263E-02  0.000000E+00  2.288438E-02 -1.504462E-03 -1.224160E-17 -8.641772E-01  0.000000E+00
  5.182680E-01  7.212978E-02  5.000000E-01  5.234998E-01  7.303136E-02  0.000000E+00  2.302990E-02 -1.306183E-03 -9.771331E-18 -8.446661E-01  0.000000E+00
  4.971500E-01  7.323325E-02  5.000000E-01  5.021686E-01  7.414597E-02  0.000000E+00  2.316698E-02 -1.108868E-03 -8.712754E-18 -8.253192E-01  0.000000E+00
  4.759900E-01  7.415352E-02  5.000000E-01  4.807950E-01  7.507553E-02  0.000000E+00  2.331155E-02 -9.125930E-04 -8.622543E-18 -8.062528E-01  0.000000E+00
  2.733630E-06 -4.853104E-04  5.000000E-01  2.813636E-06 -3.167580E-04  0.000000E+00  4.690807E-04 -1.841239E-02  8.572569E-19  1.096910E+00  0.000000E+00
  4.455870E-05 -1.425719E-03  5.000000E-01  4.506092E-05 -1.266659E-03  0.000000E+00  2.260762E-03 -2.191322E-02  2.761843E-17  1.067582E+00  0.000000E+00
  2.731490E-04 -2.957262E-03  5.000000E-01  2.759588E-04 -2.813663E-03  0.000000E+00  6.597903E-03 -2.486610E-02  4.019531E-17  9.467331E-01  0.000000E+00
  9.950900E-04 -4.910900E-03  5.000000E-01  1.005188E-03 -4.787022E-03  0.000000E+00  1.278405E-02 -2.522097E-02  4.023659E-17  7.368789E-01  0.000000E+00
  2.349870E-03 -6.984693E-03  5.000000E-01  2.373644E-03 -6.881750E-03  0.000000E+00  1.847368E-02 -2.401267E-02  3.813716E-17  5.277492E-01  0.000000E+00
  4.254460E-03 -9.111900E-03  5.000000E-01  4.297460E-03 -9.030430E-03  0.000000E+00  2.308608E-02 -2.269381E-02  2.581592E-17  3.564685E-01  0.000000E+00
  6.687140E-03 -1.123396E-02  5.000000E-01  6.754697E-03 -1.117392E-02  0.000000E+00  2.708294E-02 -2.120633E-02  5.049146E-18  1.939000E-01  0.000000E+00
  9.634000E-03 -1.331338E-02  5.000000E-01  9.731305E-03 -1.327433E-02  0.000000E+00  3.034371E-02 -1.920631E-02 -7.919938E-18  2.872230E-02  0.000000E+00
  1.310530E-02 -1.528261E-02  5.000000E-01  1.323765E-02 -1.526343E-02  0.000000E+00  3.257299E-02 -1.655546E-02 -3.136334E-18 -1.350437E-01  0.000000E+00
  1.710810E-02 -1.708997E-02  5.000000E-01  1.728085E-02 -1.708903E-02  0.000000E+00  3.383754E-02 -1.378446E-02  2.195071E-17 -2.750126E-01  0.000000E+00
  2.163760E-02 -1.873604E-02  5.000000E-01  2.185608E-02 -1.875173E-02  0.000000E+00  3.452729E-02 -1.137013E-02  5.408908E-17 -3.818313E-01  0.000000E+00
  2.669190E-02 -2.023053E-02  5.000000E-01  2.696140E-02 -2.026130E-02  0.000000E+00  3.478704E-02 -9.239252E-03  7.618650E-17 -4.679783E-01  0.000000E+00
  3.228310E-02 -2.154927E-02  5.000000E-01  3.260904E-02 -2.159335E-02  0.000000E+00  3.457492E-02 -7.268227E-03  8.637289E-17 -5.431382E-01  0.000000E+00
  3.842170E-02 -2.268020E-02  5.000000E-01  3.880961E-02 -2.273570E-02  0.000000E+00  3.397367E-02 -5.533305E-03  8.852506E-17 -6.062659E-01  0.000000E+00
  4.511710E-02 -2.362407E-02  5.000000E-01  4.557260E-02 -2.368910E-02  0.000000E+00  3.311130E-02 -4.080420E-03  8.451834E-17 -6.560952E-01  0.000000E+00
  5.237940E-02 -2.438617E-02  5.000000E-01  5.290821E-02 -2.445889E-02  0.000000E+00  3.210986E-02 -2.914418E-03  7.599271E-17 -6.922161E-01  0.000000E+00
  6.021800E-02 -2.498216E-02  5.000000E-01  6.082593E-02 -2.506090E-02  0.000000E+00  3.108761E-02 -2.027524E-03  6.538546E-17 -7.145761E-01  0.000000E+00
  6.864140E-02 -2.543725E-02  5.000000E-01  6.933437E-02 -2.552058E-02  0.000000E+00  3.009523E-02 -1.375484E-03  5.564636E-17 -7.247865E-01  0.000000E+00
  7.765990E-02 -2.577243E-02  5.000000E-01  7.844390E-02 -2.585914E-02  0.000000E+00  2.911810E-02 -9.074162E-04  4.543817E-17 -7.246545E-01  0.000000E+00
  8.728340E-02 -2.601277E-02  5.000000E-01  8.816455E-02 -2.610191E-02  0.000000E+00  2.810634E-02 -5.964165E-04  3.607493E-17 -7.145500E-01  0.000000E+00
  9.752070E-02 -2.619042E-02  5.000000E-01  9.850519E-02 -2.628135E-02  0.000000E+00  2.693641E-02 -4.162262E-04  2.891690E-17 -6.944240E-01  0.000000E+00
  1.083810E-01 -2.633726E-02  5.000000E-01  1.094751E-01 -2.642968E-02  0.000000E+00  2.545096E-02 -3.400964E-04  2.272288E-17 -6.636388E-01  0.000000E+00
  1.198710E-01 -2.648899E-02  5.000000E-01  1.210811E-01 -2.658293E-02  0.000000E+00  2.359829E-02 -3.465332E-04  1.777024E-17 -6.204161E-01  0.000000E+00
  1.319970E-01 -2.668539E-02  5.000000E-01  1.333295E-01 -2.678132E-02  0.000000E+00  2.156217E-02 -4.098154E-04  1.287656E-17 -5.630401E-01  0.000000E+00
  1.319970E-01 -2.668539E-02  5.000000E-01  1.333295E-01 -2.678132E-02  0.000000E+00  2.156217E-02 -4.098154E-04  1.287656E-17 -5.630401E-01  0.000000E+00
  1.447640E-01 -2.696384E-02  5.000000E-01  1.462254E-01 -2.706258E-02  0.000000E+00  1.977798E-02 -5.079804E-04  8.230595E-18 -4.920951E-01  0.000000E+00
  1.581750E-01 -2.735866E-02  5.000000E-01  1.597718E-01 -2.746139E-02  0.000000E+00  1.874028E-02 -6.314911E-04  5.824417E-18 -4.139655E-01  0.000000E+00
  1.722290E-01 -2.789029E-02  5.000000E-01  1.739676E-01 -2.799838E-02  0.000000E+00  1.869941E-02 -7.695816E-04  4.860600E-18 -3.429409E-01  0.000000E+00
  1.869240E-01 -2.854569E-02  5.000000E-01  1.888110E-01 -2.866040E-02  0.000000E+00  1.950635E-02 -8.778689E-04  2.339516E-18 -2.973742E-01  0.000000E+00
  2.022540E-01 -2.925273E-02  5.000000E-01  2.042957E-01 -2.937457E-02  0.000000E+00  2.070085E-02 -8.537998E-04  1.114558E-18 -2.908825E-01  0.000000E+00
  2.182110E-01 -2.984917E-02  5.000000E-01  2.204138E-01 -2.997703E-02  0.000000E+00  2.179560E-02 -6.396899E-04  1.629858E-18 -3.200178E-01  0.000000E+00
  2.347810E-01 -3.020814E-02  5.000000E-01  2.371511E-01 -3.033963E-02  0.000000E+00  2.249810E-02 -3.187627E-04  2.023322E-18 -3.636316E-01  0.000000E+00
  2.519470E-01 -3.031948E-02  5.000000E-01  2.544904E-01 -3.045210E-02  0.000000E+00  2.264386E-02  5.096935E-06  2.028759E-18 -4.011864E-01  0.000000E+00
  2.696890E-01 -3.019161E-02  5.000000E-01  2.724115E-01 -3.032294E-02  0.000000E+00  2.218168E-02  2.793003E-04  1.266235E-18 -4.218519E-01  0.000000E+00
  2.879810E-01 -2.985539E-02  5.000000E-01  2.908881E-01 -2.998332E-02  0.000000E+00  2.127996E-02  4.645868E-04  1.434924E-18 -4.209979E-01  0.000000E+00
  3.067920E-01 -2.937166E-02  5.000000E-01  3.098890E-01 -2.949471E-02  0.000000E+00  2.028705E-02  5.417568E-04  1.564968E-18 -3.995619E-01  0.000000E+00
  3.260870E-01 -2.883108E-02  5.000000E-01  3.293788E-01 -2.894866E-02  0.000000E+00  1.955735E-02  5.216583E-04  8.553285E-19 -3.646491E-01  0.000000E+00
  3.458260E-01 -2.833240E-02  5.000000E-01  3.493171E-01 -2.844495E-02  0.000000E+00  1.923946E-02  4.650874E-04 -7.822809E-19 -3.299396E-01  0.000000E+00
  3.659650E-01 -2.787538E-02  5.000000E-01  3.696594E-01 -2.798333E-02  0.000000E+00  1.925988E-02  4.406358E-04  2.359522E-20 -3.081749E-01  0.000000E+00
  3.864540E-01 -2.740933E-02  5.000000E-01  3.903552E-01 -2.751256E-02  0.000000E+00  1.945381E-02  4.706965E-04  2.341322E-18 -3.025544E-01  0.000000E+00
  4.072410E-01 -2.687942E-02  5.000000E-01  4.113520E-01 -2.697731E-02  0.000000E+00  1.961689E-02  5.536083E-04  1.513314E-18 -3.085170E-01  0.000000E+00
  4.282690E-01 -2.623017E-02  5.000000E-01  4.325923E-01 -2.632151E-02  0.000000E+00  1.953514E-02  6.810959E-04 -3.934592E-19 -3.182891E-01  0.000000E+00
  4.494800E-01 -2.540437E-02  5.000000E-01  4.540174E-01 -2.548737E-02  0.000000E+00  1.907708E-02  8.249200E-04 -6.127945E-19 -3.227489E-01  0.000000E+00
  4.708130E-01 -2.438208E-02  5.000000E-01  4.755658E-01 -2.445476E-02  0.000000E+00  1.827591E-02  9.415575E-04 -3.684650E-19 -3.136248E-01  0.000000E+00
  4.922030E-01 -2.319303E-02  5.000000E-01  4.971717E-01 -2.325370E-02  0.000000E+00  1.729749E-02  1.013206E-03  9.416096E-19 -2.881798E-01  0.000000E+00
  5.135860E-01 -2.186951E-02  5.000000E-01  5.187705E-01 -2.191683E-02  0.000000E+00  1.634825E-02  1.052590E-03  8.413029E-19 -2.503972E-01  0.000000E+00
  5.348990E-01 -2.044090E-02  5.000000E-01  5.402987E-01 -2.047379E-02  0.000000E+00  1.558993E-02  1.076113E-03 -8.045989E-19 -2.078949E-01  0.000000E+00
  5.560760E-01 -1.893781E-02  5.000000E-01  5.616895E-01 -1.895553E-02  0.000000E+00  1.506868E-02  1.097950E-03 -2.489556E-19 -1.688343E-01  0.000000E+00
  4.759900E-01  7.415352E-02  5.000000E-01  4.807950E-01  7.507553E-02  0.000000E+00  2.331155E-02 -9.125930E-04 -8.622543E-18 -8.062528E-01  0.000000E+00
  4.548480E-01  7.488951E-02  5.000000E-01  4.594396E-01  7.581894E-02  0.000000E+00  2.347101E-02 -7.170260E-04 -7.841847E-18 -7.874276E-01  0.000000E+00
  4.337860E-01  7.544305E-02  5.000000E-01  4.381650E-01  7.637808E-02  0.000000E+00  2.364687E-02 -5.189377E-04 -7.452443E-18 -7.684319E-01  0.000000E+00
  4.128620E-01  7.581212E-02  5.000000E-01  4.170298E-01  7.675087E-02  0.000000E+00  2.384062E-02 -3.068421E-04 -7.740238E-18 -7.481401E-01  0.000000E+00
  3.921340E-01  7.598136E-02  5.000000E-01  3.960925E-01  7.692182E-02  0.000000E+00  2.403860E-02 -6.982335E-05 -7.110775E-18 -7.253823E-01  0.000000E+00
  3.716590E-01  7.593437E-02  5.000000E-01  3.754108E-01  7.687435E-02  0.000000E+00  2.421005E-02  1.955210E-04 -6.916333E-18 -6.995301E-01  0.000000E+00
  3.514890E-01  7.565616E-02  5.000000E-01  3.550372E-01  7.659334E-02  0.000000E+00  2.432438E-02  4.879969E-04 -7.069773E-18 -6.704523E-01  0.000000E+00
  3.316730E-01  7.513574E-02  5.000000E-01  3.350212E-01  7.606766E-02  0.000000E+00  2.435622E-02  8.000601E-04 -6.525873E-18 -6.387752E-01  0.000000E+00
  3.122580E-01  7.437023E-02  5.000000E-01  3.154102E-01  7.529442E-02  0.000000E+00  2.428112E-02  1.110186E-03 -5.322253E-18 -6.063942E-01  0.000000E+00
  2.932850E-01  7.338180E-02  5.000000E-01  2.962457E-01  7.429602E-02  0.000000E+00  2.409478E-02  1.396321E-03 -3.915048E-18 -5.754978E-01  0.000000E+00
  2.747930E-01  7.220016E-02  5.000000E-01  2.775670E-01  7.310245E-02  0.000000E+00  2.382563E-02  1.653539E-03 -2.825605E-18 -5.471951E-01  0.000000E+00
  2.568150E-01  7.085215E-02  5.000000E-01  2.594075E-01  7.174084E-02  0.000000E+00  2.351170E-02  1.886844E-03 -1.945764E-18 -5.217867E-01  0.000000E+00
  2.393810E-01  6.936050E-02  5.000000E-01  2.417975E-01  7.023412E-02  0.000000E+00  2.318721E-02  2.104133E-03 -2.781930E-18 -4.994942E-01  0.000000E+00
  2.225160E-01  6.774375E-02  5.000000E-01  2.247623E-01  6.860105E-02  0.000000E+00  2.287962E-02  2.311227E-03 -3.774698E-18 -4.815467E-01  0.000000E+00
  2.062420E-01  6.601624E-02  5.000000E-01  2.083240E-01  6.685611E-02  0.000000E+00  2.259190E-02  2.479801E-03 -2.176429E-18 -4.727933E-01  0.000000E+00
  1.905750E-01  6.423461E-02  5.000000E-01  1.924988E-01  6.505649E-02  0.000000E+00  2.234489E-02  2.553057E-03 -1.376463E-18 -4.805165E-01  0.000000E+00
  1.755290E-01  6.250235E-02  5.000000E-01  1.773010E-01  6.330674E-02  0.000000E+00  2.228563E-02  2.550690E-03 -2.366013E-18 -5.053496E-01  0.000000E+00
  1.611160E-01  6.086208E-02  5.000000E-01  1.627425E-01  6.164991E-02  0.000000E+00  2.259592E-02  2.554216E-03 -2.345800E-18 -5.402966E-01  0.000000E+00
  1.473410E-01  5.931668E-02  5.000000E-01  1.488284E-01  6.008891E-02  0.000000E+00  2.331330E-02  2.612186E-03 -5.762479E-19 -5.776879E-01  0.000000E+00
  1.342110E-01  5.784890E-02  5.000000E-01  1.355659E-01  5.860632E-02  0.000000E+00  2.432316E-02  2.739836E-03  2.431711E-18 -6.120026E-01  0.000000E+00
  1.217280E-01  5.643337E-02  5.000000E-01  1.229569E-01  5.717650E-02  0.000000E+00  2.544820E-02  2.937168E-03  4.601224E-18 -6.405704E-01  0.000000E+00
  1.098910E-01  5.504452E-02  5.000000E-01  1.110004E-01  5.577363E-02  0.000000E+00  2.655528E-02  3.209753E-03  6.135103E-18 -6.623901E-01  0.000000E+00
  9.869950E-02  5.365362E-02  5.000000E-01  9.969589E-02  5.436869E-02  0.000000E+00  2.759385E-02  3.572905E-03  7.936601E-18 -6.770981E-01  0.000000E+00
  8.814970E-02  5.223428E-02  5.000000E-01  8.903960E-02  5.293502E-02  0.000000E+00  2.857788E-02  4.052563E-03  1.080904E-17 -6.842337E-01  0.000000E+00
  8.814970E-02  5.223428E-02  5.000000E-01  8.903960E-02  5.293502E-02  0.000000E+00  2.857788E-02  4.052563E-03  1.080904E-17 -6.842337E-01  0.000000E+00
  7.823720E-02  5.075887E-02  5.000000E-01  7.902703E-02  5.144472E-02  0.000000E+00  2.954785E-02  4.691600E-03  1.526419E-17 -6.825091E-01  0.000000E+00
  6.895800E-02  4.919601E-02  5.000000E-01  6.965416E-02  4.986608E-02  0.000000E+00  3.051555E-02  5.531937E-03  1.918911E-17 -6.704219E-01  0.000000E+00
  6.030560E-02  4.751949E-02  5.000000E-01  6.091442E-02  4.817263E-02  0.000000E+00  3.146525E-02  6.627884E-03  2.123192E-17 -6.455075E-01  0.000000E+00
  5.227560E-02  4.569687E-02  5.000000E-01  5.280336E-02  4.633162E-02  0.000000E+00  3.233793E-02  8.040533E-03  1.968209E-17 -6.042553E-01  0.000000E+00
  4.486350E-02  4.369732E-02  5.000000E-01  4.531644E-02  4.431188E-02  0.000000E+00  3.299274E-02  9.790991E-03  1.461294E-17 -5.436391E-01  0.000000E+00
  3.806240E-02  4.149869E-02  5.000000E-01  3.844668E-02  4.209106E-02  0.000000E+00  3.324497E-02  1.187673E-02  8.108307E-18 -4.597841E-01  0.000000E+00
  3.186880E-02  3.907650E-02  5.000000E-01  3.219056E-02  3.964442E-02  0.000000E+00  3.285120E-02  1.420591E-02  3.925332E-19 -3.494994E-01  0.000000E+00
  2.627530E-02  3.642116E-02  5.000000E-01  2.654059E-02  3.696227E-02  0.000000E+00  3.155757E-02  1.655329E-02 -3.629573E-18 -2.120102E-01  0.000000E+00
  2.127350E-02  3.353508E-02  5.000000E-01  2.148830E-02  3.404705E-02  0.000000E+00  2.923841E-02  1.864453E-02 -6.182201E-18 -4.736597E-02  0.000000E+00
  1.685790E-02  3.042541E-02  5.000000E-01  1.702813E-02  3.090600E-02  0.000000E+00  2.594208E-02  2.012335E-02 -9.876799E-18  1.388893E-01  0.000000E+00
  1.301460E-02  2.712727E-02  5.000000E-01  1.314603E-02  2.757456E-02  0.000000E+00  2.192627E-02  2.069963E-02 -1.638968E-17  3.371797E-01  0.000000E+00
  9.730790E-03  2.368597E-02  5.000000E-01  9.829072E-03  2.409852E-02  0.000000E+00  1.759052E-02  2.030334E-02 -2.440539E-17  5.384628E-01  0.000000E+00
  6.996180E-03  2.015642E-02  5.000000E-01  7.066857E-03  2.053335E-02  0.000000E+00  1.334094E-02  1.891419E-02 -2.531282E-17  7.277334E-01  0.000000E+00
  4.781010E-03  1.663002E-02  5.000000E-01  4.829325E-03  1.697135E-02  0.000000E+00  9.490995E-03  1.662569E-02 -1.927882E-17  8.913921E-01  0.000000E+00
  3.054950E-03  1.320217E-02  5.000000E-01  3.085841E-03  1.350890E-02  0.000000E+00  6.199608E-03  1.365268E-02 -1.738172E-17  1.024848E+00  0.000000E+00
  1.789910E-03  9.967944E-03  5.000000E-01  1.808031E-03  1.024202E-02  0.000000E+00  3.555979E-03  1.012468E-02 -2.132057E-17  1.123475E+00  0.000000E+00
  9.331870E-04  7.036285E-03  5.000000E-01  9.426596E-04  7.280765E-03  0.000000E+00  1.622774E-03  6.123376E-03 -2.120230E-17  1.183539E+00  0.000000E+00
  4.085430E-04  4.515606E-03  5.000000E-01  4.127195E-04  4.734642E-03  0.000000E+00  3.819651E-04  1.738245E-03 -2.233496E-17  1.207877E+00  0.000000E+00
  1.354760E-04  2.493112E-03  5.000000E-01  1.368960E-04  2.691730E-03  0.000000E+00 -2.396879E-04 -2.993217E-03 -3.017173E-17  1.204199E+00  0.000000E+00
  2.683130E-05  1.020900E-03  5.000000E-01  2.715456E-05  1.204658E-03  0.000000E+00 -3.444108E-04 -8.064114E-03 -3.962332E-17  1.180849E+00  0.000000E+00
  1.320070E-06  1.275893E-04  5.000000E-01  1.385807E-06  3.023287E-04  0.000000E+00 -2.079683E-04 -1.299227E-02 -4.182296E-17  1.140477E+00  0.000000E+00
 -5.188750E-08 -1.717180E-04  5.000000E-01  0.000000E+00  0.000000E+00  0.000000E+00 -4.375253E-05 -1.611920E-02 -2.689936E-17  1.105499E+00  0.000000E+00