 Title = "ADflow Slice Data"
Variables =  "CoordinateX"  "CoordinateY"  "CoordinateZ"  "XoC"  "YoC"  "ZoC" "VelocityX" "VelocityY" "VelocityZ" "CoefPressure" "Mach" 
Zone T= "Slice_0001 None Absolute Regular z = 0.50000000"
 Nodes =          192  Elements=          184  ZONETYPE=FELINESEG
 DATAPACKING=POINT
  5.560760E-01 -1.898806E-02  5.000000E-01  5.616895E-01 -1.900548E-02  0.000000E+00  1.455203E-02  1.083243E-03  1.081610E-18 -1.653801E-01  0.000000E+00
  5.770550E-01 -1.739977E-02  5.000000E-01  5.828802E-01 -1.740116E-02  0.000000E+00  1.421357E-02  1.109216E-03 -6.456475E-19 -1.281241E-01  0.000000E+00
  5.977760E-01 -1.574241E-02  5.000000E-01  6.038104E-01 -1.572707E-02  0.000000E+00  1.394535E-02  1.156746E-03  7.976950E-19 -1.058363E-01  0.000000E+00
  6.181820E-01 -1.398990E-02  5.000000E-01  6.244224E-01 -1.395686E-02  0.000000E+00  1.356100E-02  1.214420E-03  9.139911E-19 -9.023606E-02  0.000000E+00
  6.382180E-01 -1.211568E-02  5.000000E-01  6.446607E-01 -1.206372E-02  0.000000E+00  1.295371E-02  1.265615E-03 -2.505443E-18 -7.140378E-02  0.000000E+00
  6.578350E-01 -1.010667E-02  5.000000E-01  6.644757E-01 -1.003444E-02  0.000000E+00  1.211136E-02  1.291983E-03 -1.348388E-18 -4.322718E-02  0.000000E+00
  6.769910E-01 -7.970860E-03  5.000000E-01  6.838251E-01 -7.877065E-03  0.000000E+00  1.108622E-02  1.281583E-03  5.088235E-19 -5.404392E-03  0.000000E+00
  6.956490E-01 -5.729153E-03  5.000000E-01  7.026714E-01 -5.612729E-03  0.000000E+00  9.951971E-03  1.230608E-03  3.769358E-19  3.855990E-02  0.000000E+00
  7.137810E-01 -3.417127E-03  5.000000E-01  7.209864E-01 -3.277363E-03  0.000000E+00  8.775445E-03  1.141193E-03 -9.899860E-19  8.468066E-02  0.000000E+00
  7.313660E-01 -1.081213E-03  5.000000E-01  7.387490E-01 -9.178693E-04  0.000000E+00  7.604363E-03  1.022467E-03 -4.148811E-19  1.300353E-01  0.000000E+00
  7.483850E-01  1.237777E-03  5.000000E-01  7.559398E-01  1.424530E-03  0.000000E+00  6.475200E-03  8.891707E-04  5.445666E-21  1.729688E-01  0.000000E+00
  7.648220E-01  3.513450E-03  5.000000E-01  7.725427E-01  3.723176E-03  0.000000E+00  5.432170E-03  7.557534E-04 -5.998711E-19  2.127263E-01  0.000000E+00
  7.806630E-01  5.727878E-03  5.000000E-01  7.885436E-01  5.959957E-03  0.000000E+00  4.542428E-03  6.277364E-04 -6.374435E-19  2.497175E-01  0.000000E+00
  7.958970E-01  7.813621E-03  5.000000E-01  8.039314E-01  8.066756E-03  0.000000E+00  3.895501E-03  5.043773E-04 -1.241961E-19  2.854967E-01  0.000000E+00
  8.105170E-01  9.589268E-03  5.000000E-01  8.186990E-01  9.860327E-03  0.000000E+00  3.551829E-03  3.927684E-04 -3.048550E-19  3.174278E-01  0.000000E+00
  8.245160E-01  1.096488E-02  5.000000E-01  8.328393E-01  1.124983E-02  0.000000E+00  3.498471E-03  2.998835E-04 -9.851149E-19  3.402498E-01  0.000000E+00
  8.378940E-01  1.193954E-02  5.000000E-01  8.463523E-01  1.223432E-02  0.000000E+00  3.675461E-03  2.209318E-04 -1.520235E-18  3.534604E-01  0.000000E+00
  8.506490E-01  1.255627E-02  5.000000E-01  8.592361E-01  1.285728E-02  0.000000E+00  4.017902E-03  1.470154E-04 -1.139284E-18  3.599696E-01  0.000000E+00
  8.627850E-01  1.287388E-02  5.000000E-01  8.714946E-01  1.317810E-02  0.000000E+00  4.472238E-03  7.115185E-05  1.002582E-19  3.622644E-01  0.000000E+00
  8.743060E-01  1.295215E-02  5.000000E-01  8.831319E-01  1.325716E-02  0.000000E+00  4.995096E-03 -1.040004E-05 -3.471970E-19  3.614739E-01  0.000000E+00
  8.852170E-01  1.284276E-02  5.000000E-01  8.941530E-01  1.314667E-02  0.000000E+00  5.552288E-03 -9.894021E-05 -2.216985E-19  3.582393E-01  0.000000E+00
  8.955250E-01  1.258664E-02  5.000000E-01  9.045651E-01  1.288796E-02  0.000000E+00  6.119771E-03 -1.944252E-04  8.594909E-19  3.530887E-01  0.000000E+00
  9.052400E-01  1.221664E-02  5.000000E-01  9.143782E-01  1.251422E-02  0.000000E+00  6.684234E-03 -2.968115E-04  2.551175E-18  3.464309E-01  0.000000E+00
  9.143710E-01  1.175827E-02  5.000000E-01  9.236013E-01  1.205122E-02  0.000000E+00  7.244472E-03 -4.088881E-04  2.772585E-18  3.386980E-01  0.000000E+00
  9.143710E-01  1.175827E-02  5.000000E-01  9.236013E-01  1.205122E-02  0.000000E+00  7.244472E-03 -4.088881E-04  2.772585E-18  3.386980E-01  0.000000E+00
  9.229270E-01  1.122627E-02  5.000000E-01  9.322437E-01  1.151385E-02  0.000000E+00  7.810835E-03 -5.362075E-04 -4.487787E-19  3.301296E-01  0.000000E+00
  9.309180E-01  1.062974E-02  5.000000E-01  9.403154E-01  1.091131E-02  0.000000E+00  8.400765E-03 -6.840540E-04 -1.495648E-18  3.204733E-01  0.000000E+00
  9.383550E-01  9.977170E-03  5.000000E-01  9.478274E-01  1.025215E-02  0.000000E+00  9.035063E-03 -8.573646E-04  2.226231E-19  3.092636E-01  0.000000E+00
  9.452490E-01  9.277157E-03  5.000000E-01  9.547910E-01  9.545065E-03  0.000000E+00  9.737424E-03 -1.062887E-03  1.015582E-18  2.961149E-01  0.000000E+00
  9.516100E-01  8.537994E-03  5.000000E-01  9.612163E-01  8.798441E-03  0.000000E+00  1.053451E-02 -1.309241E-03  1.480266E-18  2.806269E-01  0.000000E+00
  9.574470E-01  7.769058E-03  5.000000E-01  9.671122E-01  8.021743E-03  0.000000E+00  1.145414E-02 -1.605292E-03  6.911221E-19  2.621980E-01  0.000000E+00
  9.627730E-01  6.981473E-03  5.000000E-01  9.724919E-01  7.226207E-03  0.000000E+00  1.252463E-02 -1.960541E-03 -3.303677E-19  2.401413E-01  0.000000E+00
  9.675950E-01  6.188566E-03  5.000000E-01  9.773626E-01  6.425296E-03  0.000000E+00  1.377723E-02 -2.384525E-03 -3.715025E-19  2.137367E-01  0.000000E+00
  9.719240E-01  5.405352E-03  5.000000E-01  9.817353E-01  5.634176E-03  0.000000E+00  1.525256E-02 -2.887490E-03  7.642988E-20  1.821577E-01  0.000000E+00
  9.757700E-01  4.648175E-03  5.000000E-01  9.856201E-01  4.869355E-03  0.000000E+00  1.701428E-02 -3.485788E-03  3.390595E-18  1.445758E-01  0.000000E+00
  9.791410E-01  3.933500E-03  5.000000E-01  9.890252E-01  4.147466E-03  0.000000E+00  1.916168E-02 -4.204794E-03  2.511904E-18  1.000951E-01  0.000000E+00
  9.820450E-01  3.277186E-03  5.000000E-01  9.919585E-01  3.484527E-03  0.000000E+00  2.181228E-02 -5.075592E-03 -2.677280E-17  4.737898E-02  0.000000E+00
  9.844890E-01  2.693966E-03  5.000000E-01  9.944272E-01  2.895419E-03  0.000000E+00  2.502831E-02 -6.121939E-03 -1.131940E-16 -1.526378E-02  0.000000E+00
  9.864800E-01  2.197128E-03  5.000000E-01  9.964383E-01  2.393566E-03  0.000000E+00  2.873492E-02 -7.298376E-03 -2.268320E-16 -8.824982E-02  0.000000E+00
  9.880230E-01  1.798379E-03  5.000000E-01  9.979968E-01  1.990792E-03  0.000000E+00  3.241415E-02 -8.405645E-03 -6.834545E-17 -1.785296E-01  0.000000E+00
  9.891220E-01  1.506951E-03  5.000000E-01  9.991069E-01  1.696422E-03  0.000000E+00  3.584046E-02 -9.674569E-03  1.210135E-15 -2.869480E-01  0.000000E+00
  9.897810E-01  1.329383E-03  5.000000E-01  9.997726E-01  1.517061E-03  0.000000E+00  5.263066E-02 -1.236682E-02  4.538690E-15 -3.050295E-01  0.000000E+00
  9.900000E-01  1.269773E-03  5.000000E-01  9.999938E-01  1.456849E-03  0.000000E+00  3.640682E-02 -2.225222E-03  1.194291E-14 -6.787142E-01  0.000000E+00
  9.900000E-01  1.679269E-03  5.000000E-01  9.999938E-01  1.870479E-03  0.000000E+00  2.113801E-03 -7.785559E-03  3.521204E-14 -9.773227E-01  0.000000E+00
  9.900000E-01  2.088765E-03  5.000000E-01  9.999938E-01  2.284109E-03  0.000000E+00 -5.402082E-04 -2.190147E-02  6.859308E-14 -8.219738E-01  0.000000E+00
  9.900000E-01  2.498261E-03  5.000000E-01  9.999938E-01  2.697738E-03  0.000000E+00 -1.395975E-04 -1.344781E-02  9.477554E-14 -7.944729E-01  0.000000E+00
  9.900000E-01  2.907742E-03  5.000000E-01  9.999938E-01  3.111353E-03  0.000000E+00  3.199624E-04 -8.288374E-03  1.130225E-13 -8.245678E-01  0.000000E+00
  9.900000E-01  3.317238E-03  5.000000E-01  9.999938E-01  3.524983E-03  0.000000E+00  4.471052E-03 -6.745519E-03  1.261953E-13 -7.892476E-01  0.000000E+00
  9.900000E-01  3.317238E-03  5.000000E-01  9.999938E-01  3.524983E-03  0.000000E+00  4.471052E-03 -6.745519E-03  1.261953E-13 -7.892476E-01  0.000000E+00
  9.897980E-01  3.421127E-03  5.000000E-01  9.997897E-01  3.629921E-03  0.000000E+00  5.442711E-03 -3.337679E-03  1.183012E-13 -7.409576E-01  0.000000E+00
  9.891900E-01  3.732791E-03  5.000000E-01  9.991756E-01  3.944730E-03  0.000000E+00  1.140148E-03 -5.208768E-04  8.396723E-14 -7.490484E-01  0.000000E+00
  9.881780E-01  4.251545E-03  5.000000E-01  9.981534E-01  4.468722E-03  0.000000E+00 -1.247305E-03  6.420360E-04  4.613893E-14 -7.560889E-01  0.000000E+00
  9.867570E-01  4.976088E-03  5.000000E-01  9.967181E-01  5.200578E-03  0.000000E+00 -2.610830E-03  1.316144E-03  1.878532E-14 -7.628569E-01  0.000000E+00
  9.849260E-01  5.902906E-03  5.000000E-01  9.948686E-01  6.136752E-03  0.000000E+00 -3.223806E-03  1.621689E-03  4.459052E-15 -7.726074E-01  0.000000E+00
  9.826810E-01  7.025518E-03  5.000000E-01  9.926009E-01  7.270697E-03  0.000000E+00 -3.235451E-03  1.607413E-03 -7.220549E-16 -7.817866E-01  0.000000E+00
  9.800160E-01  8.334190E-03  5.000000E-01  9.899090E-01  8.592579E-03  0.000000E+00 -2.930767E-03  1.424779E-03 -1.474914E-15 -7.874312E-01  0.000000E+00
  9.769240E-01  9.814856E-03  5.000000E-01  9.867858E-01  1.008819E-02  0.000000E+00 -2.605552E-03  1.227802E-03 -8.984221E-16 -7.896479E-01  0.000000E+00
  9.733970E-01  1.144640E-02  5.000000E-01  9.832232E-01  1.173620E-02  0.000000E+00 -2.447121E-03  1.104821E-03 -3.273223E-16 -7.904004E-01  0.000000E+00
  9.694240E-01  1.320234E-02  5.000000E-01  9.792101E-01  1.350988E-02  0.000000E+00 -2.515455E-03  1.080008E-03 -4.866496E-17 -7.916287E-01  0.000000E+00
  9.649940E-01  1.505603E-02  5.000000E-01  9.747354E-01  1.538227E-02  0.000000E+00 -2.806674E-03  1.146429E-03  2.749171E-17 -7.930984E-01  0.000000E+00
  9.600960E-01  1.698731E-02  5.000000E-01  9.697879E-01  1.733305E-02  0.000000E+00 -3.313232E-03  1.275985E-03  2.516098E-17 -7.936030E-01  0.000000E+00
  9.547180E-01  1.897612E-02  5.000000E-01  9.643556E-01  1.934194E-02  0.000000E+00 -3.906766E-03  1.388549E-03  1.017874E-17 -8.005598E-01  0.000000E+00
  9.488510E-01  2.100319E-02  5.000000E-01  9.584294E-01  2.138947E-02  0.000000E+00 -4.033655E-03  1.312474E-03  2.813673E-18 -8.370057E-01  0.000000E+00
  9.424820E-01  2.305341E-02  5.000000E-01  9.519961E-01  2.346038E-02  0.000000E+00 -2.559100E-03  7.795583E-04  3.865035E-18 -9.223304E-01  0.000000E+00
  9.356020E-01  2.511645E-02  5.000000E-01  9.450467E-01  2.554425E-02  0.000000E+00  1.798952E-03 -4.756898E-04  9.966327E-18 -1.039274E+00  0.000000E+00
  9.282010E-01  2.718635E-02  5.000000E-01  9.375709E-01  2.763505E-02  0.000000E+00  9.059725E-03 -2.364654E-03  2.154512E-17 -1.138585E+00  0.000000E+00
  9.202710E-01  2.925824E-02  5.000000E-01  9.295609E-01  2.972785E-02  0.000000E+00  1.684972E-02 -4.191270E-03  3.329019E-17 -1.185063E+00  0.000000E+00
  9.118010E-01  3.132018E-02  5.000000E-01  9.210054E-01  3.181060E-02  0.000000E+00  2.212018E-02 -5.178948E-03  3.692629E-17 -1.183218E+00  0.000000E+00
  9.027810E-01  3.335645E-02  5.000000E-01  9.118943E-01  3.386743E-02  0.000000E+00  2.401642E-02 -5.222283E-03  3.234063E-17 -1.156920E+00  0.000000E+00
  8.932000E-01  3.535170E-02  5.000000E-01  9.022166E-01  3.588282E-02  0.000000E+00  2.385957E-02 -4.768266E-03  2.490606E-17 -1.123303E+00  0.000000E+00
  8.830490E-01  3.728804E-02  5.000000E-01  8.919632E-01  3.783871E-02  0.000000E+00  2.316354E-02 -4.217430E-03  1.747814E-17 -1.088274E+00  0.000000E+00
  8.723190E-01  3.914502E-02  5.000000E-01  8.811248E-01  3.971443E-02  0.000000E+00  2.261652E-02 -3.714406E-03  1.328588E-17 -1.052645E+00  0.000000E+00
  8.723190E-01  3.914502E-02  5.000000E-01  8.811248E-01  3.971443E-02  0.000000E+00  2.261652E-02 -3.714406E-03  1.328588E-17 -1.052645E+00  0.000000E+00
  8.610010E-01  4.090243E-02  5.000000E-01  8.696926E-01  4.148959E-02  0.000000E+00  2.226553E-02 -3.260982E-03  1.129797E-17 -1.016209E+00  0.000000E+00
  8.490890E-01  4.254153E-02  5.000000E-01  8.576603E-01  4.314523E-02  0.000000E+00  2.195404E-02 -2.831423E-03  9.259881E-18 -9.790293E-01  0.000000E+00
  8.365770E-01  4.404686E-02  5.000000E-01  8.450220E-01  4.466575E-02  0.000000E+00  2.156013E-02 -2.419717E-03  8.198650E-18 -9.420122E-01  0.000000E+00
  8.234620E-01  4.541214E-02  5.000000E-01  8.317746E-01  4.604482E-02  0.000000E+00  2.105118E-02 -2.043498E-03  8.469377E-18 -9.073160E-01  0.000000E+00
  8.097400E-01  4.664630E-02  5.000000E-01  8.179141E-01  4.729144E-02  0.000000E+00  2.045802E-02 -1.735647E-03  8.842356E-18 -8.786234E-01  0.000000E+00
  7.954150E-01  4.778489E-02  5.000000E-01  8.034445E-01  4.844152E-02  0.000000E+00  1.984326E-02 -1.536272E-03  8.306734E-18 -8.606854E-01  0.000000E+00
  7.804870E-01  4.890301E-02  5.000000E-01  7.883658E-01  4.957093E-02  0.000000E+00  1.930642E-02 -1.471944E-03  8.302712E-18 -8.567864E-01  0.000000E+00
  7.649630E-01  5.010422E-02  5.000000E-01  7.726851E-01  5.078427E-02  0.000000E+00  1.900063E-02 -1.515761E-03  6.740507E-18 -8.646426E-01  0.000000E+00
  7.488530E-01  5.142993E-02  5.000000E-01  7.564125E-01  5.212335E-02  0.000000E+00  1.901860E-02 -1.617964E-03  3.032862E-18 -8.788567E-01  0.000000E+00
  7.321700E-01  5.289633E-02  5.000000E-01  7.395611E-01  5.360456E-02  0.000000E+00  1.930613E-02 -1.754390E-03 -1.244996E-18 -8.957106E-01  0.000000E+00
  7.149290E-01  5.451332E-02  5.000000E-01  7.221460E-01  5.523788E-02  0.000000E+00  1.974861E-02 -1.907700E-03 -5.595573E-18 -9.126090E-01  0.000000E+00
  6.971500E-01  5.627918E-02  5.000000E-01  7.041876E-01  5.702156E-02  0.000000E+00  2.025195E-02 -2.054838E-03 -1.006510E-17 -9.271472E-01  0.000000E+00
  6.788570E-01  5.817404E-02  5.000000E-01  6.857099E-01  5.893555E-02  0.000000E+00  2.076804E-02 -2.166674E-03 -1.515877E-17 -9.368539E-01  0.000000E+00
  6.600760E-01  6.014938E-02  5.000000E-01  6.667393E-01  6.093083E-02  0.000000E+00  2.126888E-02 -2.216872E-03 -1.858928E-17 -9.399235E-01  0.000000E+00
  6.408370E-01  6.213825E-02  5.000000E-01  6.473061E-01  6.293978E-02  0.000000E+00  2.170985E-02 -2.201129E-03 -1.966761E-17 -9.365792E-01  0.000000E+00
  6.211780E-01  6.409263E-02  5.000000E-01  6.274486E-01  6.491389E-02  0.000000E+00  2.205957E-02 -2.130689E-03 -1.980479E-17 -9.282152E-01  0.000000E+00
  6.011430E-01  6.597169E-02  5.000000E-01  6.072114E-01  6.681191E-02  0.000000E+00  2.232914E-02 -2.015062E-03 -1.864056E-17 -9.158951E-01  0.000000E+00
  5.807790E-01  6.773768E-02  5.000000E-01  5.866418E-01  6.859573E-02  0.000000E+00  2.254263E-02 -1.864594E-03 -1.660310E-17 -9.005279E-01  0.000000E+00
  5.601410E-01  6.936270E-02  5.000000E-01  5.657955E-01  7.023715E-02  0.000000E+00  2.272302E-02 -1.687871E-03 -1.434915E-17 -8.828236E-01  0.000000E+00
  5.392850E-01  7.081999E-02  5.000000E-01  5.447290E-01  7.170915E-02  0.000000E+00  2.288308E-02 -1.492806E-03 -1.230200E-17 -8.635315E-01  0.000000E+00
  5.182680E-01  7.209378E-02  5.000000E-01  5.234998E-01  7.299580E-02  0.000000E+00  2.302181E-02 -1.292476E-03 -1.017368E-17 -8.438231E-01  0.000000E+00
  4.971500E-01  7.318481E-02  5.000000E-01  5.021686E-01  7.409785E-02  0.000000E+00  2.314910E-02 -1.095430E-03 -9.329761E-18 -8.245171E-01  0.000000E+00
  4.759900E-01  7.409444E-02  5.000000E-01  4.807950E-01  7.501665E-02  0.000000E+00  2.328539E-02 -9.020878E-04 -8.950108E-18 -8.057793E-01  0.000000E+00
  2.733630E-06 -4.864738E-04  5.000000E-01  2.813636E-06 -3.171260E-04  0.000000E+00  4.663946E-04 -1.833055E-02  1.909941E-18  1.097647E+00  0.000000E+00
  4.455870E-05 -1.427994E-03  5.000000E-01  4.506092E-05 -1.268151E-03  0.000000E+00  2.249058E-03 -2.182475E-02  2.888319E-17  1.068496E+00  0.000000E+00
  2.731490E-04 -2.961442E-03  5.000000E-01  2.759588E-04 -2.817079E-03  0.000000E+00  6.567318E-03 -2.478006E-02  4.092386E-17  9.481781E-01  0.000000E+00
  9.950900E-04 -4.917755E-03  5.000000E-01  1.005188E-03 -4.793139E-03  0.000000E+00  1.273341E-02 -2.515425E-02  3.931146E-17  7.390343E-01  0.000000E+00
  2.349870E-03 -6.994708E-03  5.000000E-01  2.373644E-03 -6.891059E-03  0.000000E+00  1.841352E-02 -2.397088E-02  3.601045E-17  5.303506E-01  0.000000E+00
  4.254460E-03 -9.125420E-03  5.000000E-01  4.297460E-03 -9.043280E-03  0.000000E+00  2.302536E-02 -2.267198E-02  2.471720E-17  3.591779E-01  0.000000E+00
  6.687140E-03 -1.125124E-02  5.000000E-01  6.754697E-03 -1.119056E-02  0.000000E+00  2.702554E-02 -2.119971E-02  4.935975E-18  1.965672E-01  0.000000E+00
  9.634000E-03 -1.333462E-02  5.000000E-01  9.731305E-03 -1.329497E-02  0.000000E+00  3.029261E-02 -1.921153E-02 -7.430270E-18  3.129745E-02  0.000000E+00
  1.310530E-02 -1.530792E-02  5.000000E-01  1.323765E-02 -1.528819E-02  0.000000E+00  3.253102E-02 -1.656967E-02 -2.443007E-18 -1.325726E-01  0.000000E+00
  1.710810E-02 -1.711942E-02  5.000000E-01  1.728085E-02 -1.711798E-02  0.000000E+00  3.380569E-02 -1.380453E-02  2.224866E-17 -2.726500E-01  0.000000E+00
  2.163760E-02 -1.876973E-02  5.000000E-01  2.185608E-02 -1.878495E-02  0.000000E+00  3.450448E-02 -1.139339E-02  5.476785E-17 -3.795761E-01  0.000000E+00
  2.669190E-02 -2.026856E-02  5.000000E-01  2.696140E-02 -2.029890E-02  0.000000E+00  3.477151E-02 -9.263803E-03  7.658302E-17 -4.658332E-01  0.000000E+00
  3.228310E-02 -2.159175E-02  5.000000E-01  3.260904E-02 -2.163546E-02  0.000000E+00  3.456492E-02 -7.292764E-03  8.621827E-17 -5.411028E-01  0.000000E+00
  3.842170E-02 -2.272727E-02  5.000000E-01  3.880961E-02 -2.278244E-02  0.000000E+00  3.396743E-02 -5.557077E-03  8.813338E-17 -6.043228E-01  0.000000E+00
  4.511710E-02 -2.367592E-02  5.000000E-01  4.557260E-02 -2.374066E-02  0.000000E+00  3.310733E-02 -4.103145E-03  8.339685E-17 -6.542129E-01  0.000000E+00
  5.237940E-02 -2.444303E-02  5.000000E-01  5.290821E-02 -2.451551E-02  0.000000E+00  3.210717E-02 -2.936136E-03  7.468586E-17 -6.903555E-01  0.000000E+00
  6.021800E-02 -2.504433E-02  5.000000E-01  6.082593E-02 -2.512289E-02  0.000000E+00  3.108576E-02 -2.048469E-03  6.532730E-17 -7.126957E-01  0.000000E+00
  6.864140E-02 -2.550513E-02  5.000000E-01  6.933437E-02 -2.558834E-02  0.000000E+00  3.009395E-02 -1.395911E-03  5.497928E-17 -7.228464E-01  0.000000E+00
  7.765990E-02 -2.584648E-02  5.000000E-01  7.844390E-02 -2.593313E-02  0.000000E+00  2.911618E-02 -9.274846E-04  4.365500E-17 -7.226160E-01  0.000000E+00
  8.728340E-02 -2.609354E-02  5.000000E-01  8.816455E-02 -2.618269E-02  0.000000E+00  2.810005E-02 -6.161765E-04  3.493700E-17 -7.123694E-01  0.000000E+00
  9.752070E-02 -2.627854E-02  5.000000E-01  9.850519E-02 -2.636955E-02  0.000000E+00  2.691888E-02 -4.355695E-04  2.869973E-17 -6.920437E-01  0.000000E+00
  1.083810E-01 -2.643341E-02  5.000000E-01  1.094751E-01 -2.652599E-02  0.000000E+00  2.541475E-02 -3.586987E-04  2.311698E-17 -6.609712E-01  0.000000E+00
  1.198710E-01 -2.659388E-02  5.000000E-01  1.210811E-01 -2.668808E-02  0.000000E+00  2.354162E-02 -3.638734E-04  1.814763E-17 -6.173304E-01  0.000000E+00
  1.319970E-01 -2.679973E-02  5.000000E-01  1.333295E-01 -2.689600E-02  0.000000E+00  2.149492E-02 -4.254033E-04  1.367820E-17 -5.593991E-01  0.000000E+00
  1.319970E-01 -2.679973E-02  5.000000E-01  1.333295E-01 -2.689600E-02  0.000000E+00  2.149492E-02 -4.254033E-04  1.367820E-17 -5.593991E-01  0.000000E+00
  1.447640E-01 -2.708817E-02  5.000000E-01  1.462254E-01 -2.718736E-02  0.000000E+00  1.972051E-02 -5.218470E-04  8.193600E-18 -4.878929E-01  0.000000E+00
  1.581750E-01 -2.749325E-02  5.000000E-01  1.597718E-01 -2.759653E-02  0.000000E+00  1.871338E-02 -6.443424E-04  3.556482E-18 -4.095142E-01  0.000000E+00
  1.722290E-01 -2.803483E-02  5.000000E-01  1.739676E-01 -2.814357E-02  0.000000E+00  1.871288E-02 -7.820932E-04  1.656284E-18 -3.389118E-01  0.000000E+00
  1.869240E-01 -2.869883E-02  5.000000E-01  1.888110E-01 -2.881428E-02  0.000000E+00  1.955557E-02 -8.891982E-04  1.781880E-18 -2.945410E-01  0.000000E+00
  2.022540E-01 -2.941146E-02  5.000000E-01  2.042957E-01 -2.953410E-02  0.000000E+00  2.077062E-02 -8.605010E-04  1.791150E-18 -2.897005E-01  0.000000E+00
  2.182110E-01 -3.000809E-02  5.000000E-01  2.204138E-01 -3.013675E-02  0.000000E+00  2.186516E-02 -6.376616E-04  9.054753E-19 -3.202995E-01  0.000000E+00
  2.347810E-01 -3.036052E-02  5.000000E-01  2.371511E-01 -3.049274E-02  0.000000E+00  2.254375E-02 -3.069686E-04 -7.519968E-20 -3.645669E-01  0.000000E+00
  2.519470E-01 -3.045932E-02  5.000000E-01  2.544904E-01 -3.059254E-02  0.000000E+00  2.263912E-02  2.365108E-05 -5.545867E-19 -4.017212E-01  0.000000E+00
  2.696890E-01 -3.031488E-02  5.000000E-01  2.724115E-01 -3.044664E-02  0.000000E+00  2.210088E-02  2.986606E-04  6.893198E-20 -4.210260E-01  0.000000E+00
  2.879810E-01 -2.996153E-02  5.000000E-01  2.908881E-01 -3.008973E-02  0.000000E+00  2.111062E-02  4.775417E-04 -1.049656E-19 -4.180300E-01  0.000000E+00
  3.067920E-01 -2.946532E-02  5.000000E-01  3.098890E-01 -2.958850E-02  0.000000E+00  2.004700E-02  5.423787E-04 -1.442740E-19 -3.938915E-01  0.000000E+00
  3.260870E-01 -2.892367E-02  5.000000E-01  3.293788E-01 -2.904139E-02  0.000000E+00  1.930357E-02  5.072535E-04  1.003404E-18 -3.562108E-01  0.000000E+00
  3.458260E-01 -2.844165E-02  5.000000E-01  3.493171E-01 -2.855450E-02  0.000000E+00  1.905803E-02  4.379514E-04  1.591944E-18 -3.198033E-01  0.000000E+00
  3.659650E-01 -2.801595E-02  5.000000E-01  3.696594E-01 -2.812450E-02  0.000000E+00  1.924576E-02  4.077523E-04  2.107833E-18 -2.988225E-01  0.000000E+00
  3.864540E-01 -2.758786E-02  5.000000E-01  3.903552E-01 -2.769209E-02  0.000000E+00  1.968636E-02  4.417769E-04  1.934569E-18 -2.974283E-01  0.000000E+00
  4.072410E-01 -2.709362E-02  5.000000E-01  4.113520E-01 -2.719286E-02  0.000000E+00  2.012180E-02  5.403346E-04 -1.576785E-20 -3.113231E-01  0.000000E+00
  4.282690E-01 -2.646804E-02  5.000000E-01  4.325923E-01 -2.656097E-02  0.000000E+00  2.024052E-02  6.943278E-04 -7.599079E-19 -3.319427E-01  0.000000E+00
  4.494800E-01 -2.564405E-02  5.000000E-01  4.540174E-01 -2.572866E-02  0.000000E+00  1.980609E-02  8.653126E-04 -1.036197E-18 -3.475870E-01  0.000000E+00
  4.708130E-01 -2.459977E-02  5.000000E-01  4.755658E-01 -2.467383E-02  0.000000E+00  1.881063E-02  9.936624E-04 -8.574034E-19 -3.457794E-01  0.000000E+00
  4.922030E-01 -2.337248E-02  5.000000E-01  4.971717E-01 -2.343416E-02  0.000000E+00  1.748551E-02  1.056377E-03  1.367018E-19 -3.200243E-01  0.000000E+00
  5.135860E-01 -2.200281E-02  5.000000E-01  5.187705E-01 -2.205066E-02  0.000000E+00  1.617598E-02  1.074935E-03 -6.616514E-19 -2.735372E-01  0.000000E+00
  5.348990E-01 -2.052844E-02  5.000000E-01  5.402987E-01 -2.056141E-02  0.000000E+00  1.516805E-02  1.076938E-03 -2.838574E-19 -2.172830E-01  0.000000E+00
  5.560760E-01 -1.898806E-02  5.000000E-01  5.616895E-01 -1.900548E-02  0.000000E+00  1.455203E-02  1.083243E-03  1.081610E-18 -1.653801E-01  0.000000E+00
  4.759900E-01  7.409444E-02  5.000000E-01  4.807950E-01  7.501665E-02  0.000000E+00  2.328539E-02 -9.020878E-04 -8.950108E-18 -8.057793E-01  0.000000E+00
  4.548480E-01  7.482370E-02  5.000000E-01  4.594396E-01  7.575328E-02  0.000000E+00  2.344102E-02 -7.120649E-04 -8.751693E-18 -7.875614E-01  0.000000E+00
  4.337860E-01  7.537653E-02  5.000000E-01  4.381650E-01  7.631169E-02  0.000000E+00  2.361947E-02 -5.210588E-04 -8.521135E-18 -7.693363E-01  0.000000E+00
  4.128620E-01  7.575117E-02  5.000000E-01  4.170298E-01  7.669011E-02  0.000000E+00  2.382332E-02 -3.150919E-04 -7.774083E-18 -7.497432E-01  0.000000E+00
  3.921340E-01  7.592978E-02  5.000000E-01  3.960925E-01  7.687053E-02  0.000000E+00  2.403629E-02 -8.136195E-05 -7.786650E-18 -7.274171E-01  0.000000E+00
  3.716590E-01  7.589333E-02  5.000000E-01  3.754108E-01  7.683371E-02  0.000000E+00  2.422225E-02  1.838917E-04 -8.051929E-18 -7.016549E-01  0.000000E+00
  3.514890E-01  7.562440E-02  5.000000E-01  3.550372E-01  7.656207E-02  0.000000E+00  2.434649E-02  4.793426E-04 -7.613905E-18 -6.723126E-01  0.000000E+00
  3.316730E-01  7.510982E-02  5.000000E-01  3.350212E-01  7.604229E-02  0.000000E+00  2.438148E-02  7.967350E-04 -6.483271E-18 -6.400784E-01  0.000000E+00
  3.122580E-01  7.434523E-02  5.000000E-01  3.154102E-01  7.526998E-02  0.000000E+00  2.430136E-02  1.112250E-03 -5.254649E-18 -6.070473E-01  0.000000E+00
  2.932850E-01  7.335398E-02  5.000000E-01  2.962457E-01  7.426872E-02  0.000000E+00  2.410290E-02  1.401510E-03 -3.765456E-18 -5.756393E-01  0.000000E+00
  2.747930E-01  7.216770E-02  5.000000E-01  2.775670E-01  7.307047E-02  0.000000E+00  2.381901E-02  1.659259E-03 -2.751683E-18 -5.470755E-01  0.000000E+00
  2.568150E-01  7.081477E-02  5.000000E-01  2.594075E-01  7.170389E-02  0.000000E+00  2.349248E-02  1.891246E-03 -2.822757E-18 -5.216707E-01  0.000000E+00
  2.393810E-01  6.931901E-02  5.000000E-01  2.417975E-01  7.019302E-02  0.000000E+00  2.316037E-02  2.106230E-03 -3.387196E-18 -4.996104E-01  0.000000E+00
  2.225160E-01  6.769961E-02  5.000000E-01  2.247623E-01  6.855728E-02  0.000000E+00  2.285079E-02  2.310716E-03 -2.746395E-18 -4.820608E-01  0.000000E+00
  2.062420E-01  6.597124E-02  5.000000E-01  2.083240E-01  6.681146E-02  0.000000E+00  2.256593E-02  2.476864E-03 -1.388839E-18 -4.737929E-01  0.000000E+00
  1.905750E-01  6.419058E-02  5.000000E-01  1.924988E-01  6.501282E-02  0.000000E+00  2.232524E-02  2.548222E-03 -6.457697E-19 -4.819999E-01  0.000000E+00
  1.755290E-01  6.246091E-02  5.000000E-01  1.773010E-01  6.326569E-02  0.000000E+00  2.227417E-02  2.544514E-03 -1.158491E-18 -5.072378E-01  0.000000E+00
  1.611160E-01  6.082448E-02  5.000000E-01  1.627425E-01  6.161274E-02  0.000000E+00  2.259272E-02  2.546982E-03 -2.052031E-18 -5.424726E-01  0.000000E+00
  1.473410E-01  5.928379E-02  5.000000E-01  1.488284E-01  6.005650E-02  0.000000E+00  2.331670E-02  2.603895E-03 -1.719525E-18 -5.800393E-01  0.000000E+00
  1.342110E-01  5.782128E-02  5.000000E-01  1.355659E-01  5.857922E-02  0.000000E+00  2.433047E-02  2.730358E-03  5.067104E-19 -6.144472E-01  0.000000E+00
  1.217280E-01  5.641130E-02  5.000000E-01  1.229569E-01  5.715501E-02  0.000000E+00  2.545680E-02  2.926413E-03  2.428114E-18 -6.430597E-01  0.000000E+00
  1.098910E-01  5.502809E-02  5.000000E-01  1.110004E-01  5.575784E-02  0.000000E+00  2.656349E-02  3.197766E-03  3.806514E-18 -6.648990E-01  0.000000E+00
  9.869950E-02  5.364278E-02  5.000000E-01  9.969589E-02  5.435854E-02  0.000000E+00  2.760118E-02  3.559871E-03  6.533326E-18 -6.796137E-01  0.000000E+00
  8.814970E-02  5.222886E-02  5.000000E-01  8.903960E-02  5.293035E-02  0.000000E+00  2.858469E-02  4.038776E-03  9.975539E-18 -6.867483E-01  0.000000E+00
  8.814970E-02  5.222886E-02  5.000000E-01  8.903960E-02  5.293035E-02  0.000000E+00  2.858469E-02  4.038776E-03  9.975539E-18 -6.867483E-01  0.000000E+00
  7.823720E-02  5.075859E-02  5.000000E-01  7.902703E-02  5.144524E-02  0.000000E+00  2.955495E-02  4.677441E-03  1.475521E-17 -6.850163E-01  0.000000E+00
  6.895800E-02  4.920052E-02  5.000000E-01  6.965416E-02  4.987144E-02  0.000000E+00  3.052383E-02  5.517892E-03  1.925204E-17 -6.729148E-01  0.000000E+00
  6.030560E-02  4.752835E-02  5.000000E-01  6.091442E-02  4.818239E-02  0.000000E+00  3.147564E-02  6.614614E-03  2.101373E-17 -6.479767E-01  0.000000E+00
  5.227560E-02  4.570959E-02  5.000000E-01  5.280336E-02  4.634527E-02  0.000000E+00  3.235133E-02  8.028961E-03  1.992593E-17 -6.066868E-01  0.000000E+00
  4.486350E-02  4.371332E-02  5.000000E-01  4.531644E-02  4.432885E-02  0.000000E+00  3.300984E-02  9.782330E-03  1.523723E-17 -5.460121E-01  0.000000E+00
  3.806240E-02  4.151736E-02  5.000000E-01  3.844668E-02  4.211072E-02  0.000000E+00  3.326603E-02  1.187246E-02  6.345730E-18 -4.620686E-01  0.000000E+00
  3.186880E-02  3.909716E-02  5.000000E-01  3.219056E-02  3.966609E-02  0.000000E+00  3.287570E-02  1.420753E-02 -1.960873E-18 -3.516553E-01  0.000000E+00
  2.627530E-02  3.644310E-02  5.000000E-01  2.654059E-02  3.698524E-02  0.000000E+00  3.158395E-02  1.656179E-02 -5.122567E-18 -2.139901E-01  0.000000E+00
  2.127350E-02  3.355757E-02  5.000000E-01  2.148830E-02  3.407058E-02  0.000000E+00  2.926432E-02  1.865996E-02 -6.500649E-18 -4.912193E-02  0.000000E+00
  1.685790E-02  3.044772E-02  5.000000E-01  1.702813E-02  3.092934E-02  0.000000E+00  2.596492E-02  2.014430E-02 -1.032872E-17  1.373921E-01  0.000000E+00
  1.301460E-02  2.714871E-02  5.000000E-01  1.314603E-02  2.759703E-02  0.000000E+00  2.194393E-02  2.072343E-02 -1.647362E-17  3.359517E-01  0.000000E+00
  9.730790E-03  2.370591E-02  5.000000E-01  9.829072E-03  2.411948E-02  0.000000E+00  1.760231E-02  2.032711E-02 -2.362444E-17  5.374891E-01  0.000000E+00
  6.996180E-03  2.017431E-02  5.000000E-01  7.066857E-03  2.055222E-02  0.000000E+00  1.334775E-02  1.893579E-02 -2.686181E-17  7.269751E-01  0.000000E+00
  4.781010E-03  1.664543E-02  5.000000E-01  4.829325E-03  1.698772E-02  0.000000E+00  9.494654E-03  1.664448E-02 -2.192901E-17  8.908025E-01  0.000000E+00
  3.054950E-03  1.321483E-02  5.000000E-01  3.085841E-03  1.352248E-02  0.000000E+00  6.202069E-03  1.366973E-02 -1.767394E-17  1.024395E+00  0.000000E+00
  1.789910E-03  9.977715E-03  5.000000E-01  1.808031E-03  1.025270E-02  0.000000E+00  3.558706E-03  1.014235E-02 -1.828276E-17  1.123148E+00  0.000000E+00
  9.331870E-04  7.043231E-03  5.000000E-01  9.426596E-04  7.288589E-03  0.000000E+00  1.626409E-03  6.144733E-03 -1.771107E-17  1.183347E+00  0.000000E+00
  4.085430E-04  4.519974E-03  5.000000E-01  4.127195E-04  4.739861E-03  0.000000E+00  3.862756E-04  1.766616E-03 -1.949905E-17  1.207842E+00  0.000000E+00
  1.354760E-04  2.495311E-03  5.000000E-01  1.368960E-04  2.694759E-03  0.000000E+00 -2.355720E-04 -2.954453E-03 -2.789968E-17  1.204345E+00  0.000000E+00
  2.683130E-05  1.021464E-03  5.000000E-01  2.715456E-05  1.206034E-03  0.000000E+00 -3.415218E-04 -8.011707E-03 -3.761487E-17  1.181194E+00  0.000000E+00
  1.320070E-06  1.271356E-04  5.000000E-01  1.385807E-06  3.026775E-04  0.000000E+00 -2.066461E-04 -1.292484E-02 -3.987870E-17  1.141016E+00  0.000000E+00
 -5.188750E-08 -1.725170E-04  5.000000E-01  0.000000E+00  0.000000E+00  0.000000E+00 -4.367884E-05 -1.604253E-02 -2.547840E-17  1.106173E+00  0.000000E+00