 Title = "ADflow Slice Data"
Variables =  "CoordinateX"  "CoordinateY"  "CoordinateZ"  "XoC"  "YoC"  "ZoC" "VelocityX" "VelocityY" "VelocityZ" "CoefPressure" "Mach" 
Zone T= "Slice_0001 None Absolute Regular z = 0.50000000"
 Nodes =          192  Elements=          184  ZONETYPE=FELINESEG
 DATAPACKING=POINT
  5.560760E-01 -1.898803E-02  5.000000E-01  5.616895E-01 -1.900613E-02  0.000000E+00  1.448656E-02  1.078579E-03  3.249672E-19 -1.681948E-01  0.000000E+00
  5.770550E-01 -1.739996E-02  5.000000E-01  5.828802E-01 -1.740203E-02  0.000000E+00  1.412763E-02  1.102591E-03 -1.598538E-18 -1.277867E-01  0.000000E+00
  5.977760E-01 -1.574355E-02  5.000000E-01  6.038104E-01 -1.572889E-02  0.000000E+00  1.386657E-02  1.149399E-03 -1.377773E-18 -1.041913E-01  0.000000E+00
  6.181820E-01 -1.399329E-02  5.000000E-01  6.244224E-01 -1.396097E-02  0.000000E+00  1.350398E-02  1.207164E-03 -8.773889E-19 -8.887240E-02  0.000000E+00
  6.382180E-01 -1.212321E-02  5.000000E-01  6.446607E-01 -1.207201E-02  0.000000E+00  1.292398E-02  1.259088E-03  7.115061E-19 -7.097441E-02  0.000000E+00
  6.578350E-01 -1.012081E-02  5.000000E-01  6.644757E-01 -1.004940E-02  0.000000E+00  1.210908E-02  1.286766E-03  7.092546E-19 -4.364188E-02  0.000000E+00
  6.769910E-01 -7.994263E-03  5.000000E-01  6.838251E-01 -7.901384E-03  0.000000E+00  1.110732E-02  1.278454E-03  6.048073E-20 -6.387025E-03  0.000000E+00
  6.956490E-01 -5.762521E-03  5.000000E-01  7.026714E-01 -5.647113E-03  0.000000E+00  9.988738E-03  1.230275E-03  5.762722E-19  3.716677E-02  0.000000E+00
  7.137810E-01 -3.458672E-03  5.000000E-01  7.209864E-01 -3.320008E-03  0.000000E+00  8.817964E-03  1.143582E-03 -6.561641E-19  8.297690E-02  0.000000E+00
  7.313660E-01 -1.127158E-03  5.000000E-01  7.387490E-01 -9.649577E-04  0.000000E+00  7.642502E-03  1.026702E-03 -6.300638E-19  1.281726E-01  0.000000E+00
  7.483850E-01  1.192616E-03  5.000000E-01  7.559398E-01  1.378234E-03  0.000000E+00  6.500529E-03  8.940172E-04  1.255045E-18  1.711572E-01  0.000000E+00
  7.648220E-01  3.475092E-03  5.000000E-01  7.725427E-01  3.683750E-03  0.000000E+00  5.439219E-03  7.600137E-04  1.316008E-18  2.111655E-01  0.000000E+00
  7.806630E-01  5.702705E-03  5.000000E-01  7.885436E-01  5.933851E-03  0.000000E+00  4.529149E-03  6.304914E-04  2.291422E-18  2.485474E-01  0.000000E+00
  7.958970E-01  7.807179E-03  5.000000E-01  8.039314E-01  8.059569E-03  0.000000E+00  3.862941E-03  5.053536E-04  2.610800E-18  2.848050E-01  0.000000E+00
  8.105170E-01  9.603754E-03  5.000000E-01  8.186990E-01  9.874280E-03  0.000000E+00  3.502791E-03  3.925587E-04 -5.165729E-19  3.172186E-01  0.000000E+00
  8.245160E-01  1.099981E-02  5.000000E-01  8.328393E-01  1.128443E-02  0.000000E+00  3.435839E-03  2.994864E-04 -1.739418E-18  3.404440E-01  0.000000E+00
  8.378940E-01  1.199287E-02  5.000000E-01  8.463523E-01  1.228752E-02  0.000000E+00  3.601421E-03  2.211699E-04 -1.354007E-18  3.539865E-01  0.000000E+00
  8.506490E-01  1.262520E-02  5.000000E-01  8.592361E-01  1.292622E-02  0.000000E+00  3.934104E-03  1.483375E-04 -1.048865E-18  3.608037E-01  0.000000E+00
  8.627850E-01  1.295527E-02  5.000000E-01  8.714946E-01  1.325963E-02  0.000000E+00  4.380230E-03  7.365552E-05  1.280513E-19  3.634041E-01  0.000000E+00
  8.743060E-01  1.304283E-02  5.000000E-01  8.831319E-01  1.334807E-02  0.000000E+00  4.896566E-03 -6.872957E-06  2.251743E-19  3.629087E-01  0.000000E+00
  8.852170E-01  1.293968E-02  5.000000E-01  8.941530E-01  1.324388E-02  0.000000E+00  5.449092E-03 -9.469796E-05 -1.110357E-19  3.599430E-01  0.000000E+00
  8.955250E-01  1.268697E-02  5.000000E-01  9.045651E-01  1.298862E-02  0.000000E+00  6.013873E-03 -1.898555E-04 -6.531293E-19  3.550241E-01  0.000000E+00
  9.052400E-01  1.231784E-02  5.000000E-01  9.143782E-01  1.261576E-02  0.000000E+00  6.577605E-03 -2.923349E-04 -5.790401E-19  3.485544E-01  0.000000E+00
  9.143710E-01  1.185810E-02  5.000000E-01  9.236013E-01  1.215139E-02  0.000000E+00  7.138945E-03 -4.048957E-04  1.252366E-18  3.409623E-01  0.000000E+00
  9.143710E-01  1.185810E-02  5.000000E-01  9.236013E-01  1.215139E-02  0.000000E+00  7.138945E-03 -4.048957E-04  1.252366E-18  3.409623E-01  0.000000E+00
  9.229270E-01  1.132283E-02  5.000000E-01  9.322437E-01  1.161071E-02  0.000000E+00  7.707974E-03 -5.330323E-04  7.642816E-19  3.324869E-01  0.000000E+00
  9.309180E-01  1.072144E-02  5.000000E-01  9.403154E-01  1.100325E-02  0.000000E+00  8.301808E-03 -6.820047E-04 -1.083673E-18  3.228804E-01  0.000000E+00
  9.383550E-01  1.006275E-02  5.000000E-01  9.478274E-01  1.033791E-02  0.000000E+00  8.940925E-03 -8.567557E-04 -1.496986E-18  3.116847E-01  0.000000E+00
  9.452490E-01  9.355689E-03  5.000000E-01  9.547910E-01  9.623710E-03  0.000000E+00  9.648708E-03 -1.064047E-03 -1.386646E-18  2.985205E-01  0.000000E+00
  9.516100E-01  8.608841E-03  5.000000E-01  9.612162E-01  8.869323E-03  0.000000E+00  1.045155E-02 -1.312523E-03 -1.118257E-18  2.829929E-01  0.000000E+00
  9.574470E-01  7.831869E-03  5.000000E-01  9.671122E-01  8.084508E-03  0.000000E+00  1.137704E-02 -1.611100E-03 -1.801488E-18  2.645056E-01  0.000000E+00
  9.627730E-01  7.036145E-03  5.000000E-01  9.724919E-01  7.280751E-03  0.000000E+00  1.245336E-02 -1.969337E-03 -1.860621E-18  2.423757E-01  0.000000E+00
  9.675950E-01  6.235225E-03  5.000000E-01  9.773626E-01  6.471746E-03  0.000000E+00  1.371166E-02 -2.396848E-03 -1.923308E-19  2.158867E-01  0.000000E+00
  9.719240E-01  5.444315E-03  5.000000E-01  9.817353E-01  5.672852E-03  0.000000E+00  1.519258E-02 -2.903987E-03  2.283612E-18  1.842135E-01  0.000000E+00
  9.757700E-01  4.679918E-03  5.000000E-01  9.856201E-01  4.900739E-03  0.000000E+00  1.695984E-02 -3.507264E-03  4.490298E-18  1.465273E-01  0.000000E+00
  9.791410E-01  3.958634E-03  5.000000E-01  9.890252E-01  4.172173E-03  0.000000E+00  1.911293E-02 -4.232315E-03  2.100540E-18  1.019306E-01  0.000000E+00
  9.820450E-01  3.296425E-03  5.000000E-01  9.919585E-01  3.503280E-03  0.000000E+00  2.176990E-02 -5.110611E-03 -2.605289E-17  4.908408E-02  0.000000E+00
  9.844890E-01  2.708108E-03  5.000000E-01  9.944271E-01  2.909024E-03  0.000000E+00  2.499401E-02 -6.166311E-03 -1.125932E-16 -1.370934E-02  0.000000E+00
  9.864800E-01  2.207029E-03  5.000000E-01  9.964382E-01  2.402887E-03  0.000000E+00  2.871171E-02 -7.354135E-03 -2.265431E-16 -8.688296E-02  0.000000E+00
  9.880230E-01  1.804942E-03  5.000000E-01  9.979968E-01  1.996740E-03  0.000000E+00  3.240544E-02 -8.474016E-03 -6.737510E-17 -1.774115E-01  0.000000E+00
  9.891220E-01  1.511109E-03  5.000000E-01  9.991069E-01  1.699942E-03  0.000000E+00  3.584539E-02 -9.754203E-03  1.215254E-15 -2.861122E-01  0.000000E+00
  9.897810E-01  1.332089E-03  5.000000E-01  9.997726E-01  1.519115E-03  0.000000E+00  5.260290E-02 -1.247170E-02  4.555896E-15 -3.046492E-01  0.000000E+00
  9.900000E-01  1.271994E-03  5.000000E-01  9.999938E-01  1.458413E-03  0.000000E+00  3.637892E-02 -2.287727E-03  1.198373E-14 -6.790012E-01  0.000000E+00
  9.900000E-01  1.681503E-03  5.000000E-01  9.999938E-01  1.872055E-03  0.000000E+00  2.118927E-03 -7.781566E-03  3.534045E-14 -9.780827E-01  0.000000E+00
  9.900000E-01  2.091011E-03  5.000000E-01  9.999938E-01  2.285697E-03  0.000000E+00 -5.404157E-04 -2.188895E-02  6.883292E-14 -8.228460E-01  0.000000E+00
  9.900000E-01  2.500519E-03  5.000000E-01  9.999938E-01  2.699339E-03  0.000000E+00 -1.404810E-04 -1.342604E-02  9.506257E-14 -7.953731E-01  0.000000E+00
  9.900000E-01  2.910012E-03  5.000000E-01  9.999938E-01  3.112967E-03  0.000000E+00  3.208200E-04 -8.279382E-03  1.133393E-13 -8.256334E-01  0.000000E+00
  9.900000E-01  3.319521E-03  5.000000E-01  9.999938E-01  3.526609E-03  0.000000E+00  4.497437E-03 -6.773850E-03  1.266241E-13 -7.903118E-01  0.000000E+00
  9.900000E-01  3.319521E-03  5.000000E-01  9.999938E-01  3.526609E-03  0.000000E+00  4.497437E-03 -6.773850E-03  1.266241E-13 -7.903118E-01  0.000000E+00
  9.897980E-01  3.423871E-03  5.000000E-01  9.997897E-01  3.632013E-03  0.000000E+00  5.493797E-03 -3.378025E-03  1.188123E-13 -7.418847E-01  0.000000E+00
  9.891900E-01  3.736921E-03  5.000000E-01  9.991756E-01  3.948222E-03  0.000000E+00  1.191264E-03 -5.494155E-04  8.442549E-14 -7.498879E-01  0.000000E+00
  9.881780E-01  4.257980E-03  5.000000E-01  9.981534E-01  4.474542E-03  0.000000E+00 -1.202845E-03  6.219631E-04  4.649560E-14 -7.567641E-01  0.000000E+00
  9.867570E-01  4.985753E-03  5.000000E-01  9.967180E-01  5.209661E-03  0.000000E+00 -2.579035E-03  1.305728E-03  1.902513E-14 -7.634076E-01  0.000000E+00
  9.849260E-01  5.916722E-03  5.000000E-01  9.948686E-01  6.150028E-03  0.000000E+00 -3.205979E-03  1.619914E-03  4.588613E-15 -7.731235E-01  0.000000E+00
  9.826810E-01  7.044404E-03  5.000000E-01  9.926009E-01  7.289093E-03  0.000000E+00 -3.228430E-03  1.611172E-03 -6.740573E-16 -7.823423E-01  0.000000E+00
  9.800160E-01  8.359056E-03  5.000000E-01  9.899090E-01  8.617016E-03  0.000000E+00 -2.929078E-03  1.430512E-03 -1.470518E-15 -7.880604E-01  0.000000E+00
  9.769240E-01  9.846600E-03  5.000000E-01  9.867858E-01  1.011958E-02  0.000000E+00 -2.603979E-03  1.232883E-03 -9.075822E-16 -7.903390E-01  0.000000E+00
  9.733970E-01  1.148588E-02  5.000000E-01  9.832232E-01  1.177541E-02  0.000000E+00 -2.442597E-03  1.108161E-03 -3.348290E-16 -7.911088E-01  0.000000E+00
  9.694240E-01  1.325039E-02  5.000000E-01  9.792101E-01  1.355773E-02  0.000000E+00 -2.507181E-03  1.081638E-03 -5.174643E-17 -7.923297E-01  0.000000E+00
  9.649940E-01  1.511337E-02  5.000000E-01  9.747354E-01  1.543951E-02  0.000000E+00 -2.794364E-03  1.146894E-03  2.696291E-17 -7.938355E-01  0.000000E+00
  9.600960E-01  1.705458E-02  5.000000E-01  9.697879E-01  1.740032E-02  0.000000E+00 -3.297785E-03  1.276809E-03  2.593153E-17 -7.943274E-01  0.000000E+00
  9.547180E-01  1.905380E-02  5.000000E-01  9.643556E-01  1.941972E-02  0.000000E+00 -3.897494E-03  1.393340E-03  1.197264E-17 -8.007955E-01  0.000000E+00
  9.488510E-01  2.109157E-02  5.000000E-01  9.584294E-01  2.147806E-02  0.000000E+00 -4.056254E-03  1.327298E-03  4.695692E-18 -8.360088E-01  0.000000E+00
  9.424820E-01  2.315254E-02  5.000000E-01  9.519961E-01  2.355984E-02  0.000000E+00 -2.650096E-03  8.108256E-04  4.979928E-18 -9.200664E-01  0.000000E+00
  9.356020E-01  2.522611E-02  5.000000E-01  9.450467E-01  2.565434E-02  0.000000E+00  1.622342E-03 -4.283937E-04  1.085930E-17 -1.036914E+00  0.000000E+00
  9.282010E-01  2.730599E-02  5.000000E-01  9.375709E-01  2.775522E-02  0.000000E+00  8.840284E-03 -2.315851E-03  2.253352E-17 -1.137423E+00  0.000000E+00
  9.202710E-01  2.938690E-02  5.000000E-01  9.295609E-01  2.985713E-02  0.000000E+00  1.668475E-02 -4.164530E-03  3.451820E-17 -1.185280E+00  0.000000E+00
  9.118010E-01  3.145644E-02  5.000000E-01  9.210054E-01  3.194756E-02  0.000000E+00  2.207102E-02 -5.182868E-03  3.848341E-17 -1.184074E+00  0.000000E+00
  9.027810E-01  3.349834E-02  5.000000E-01  9.118943E-01  3.401007E-02  0.000000E+00  2.405909E-02 -5.242633E-03  3.402515E-17 -1.157654E+00  0.000000E+00
  8.932000E-01  3.549657E-02  5.000000E-01  9.022166E-01  3.602847E-02  0.000000E+00  2.393963E-02 -4.787689E-03  2.627272E-17 -1.123509E+00  0.000000E+00
  8.830490E-01  3.743251E-02  5.000000E-01  8.919631E-01  3.798396E-02  0.000000E+00  2.324502E-02 -4.226939E-03  2.016036E-17 -1.087758E+00  0.000000E+00
  8.723190E-01  3.928486E-02  5.000000E-01  8.811248E-01  3.985501E-02  0.000000E+00  2.268597E-02 -3.711242E-03  1.589282E-17 -1.051264E+00  0.000000E+00
  8.723190E-01  3.928486E-02  5.000000E-01  8.811248E-01  3.985501E-02  0.000000E+00  2.268597E-02 -3.711242E-03  1.589282E-17 -1.051264E+00  0.000000E+00
  8.610010E-01  4.103252E-02  5.000000E-01  8.696926E-01  4.162031E-02  0.000000E+00  2.231849E-02 -3.244404E-03  1.251426E-17 -1.013820E+00  0.000000E+00
  8.490890E-01  4.265584E-02  5.000000E-01  8.576603E-01  4.326001E-02  0.000000E+00  2.198601E-02 -2.801230E-03  1.035561E-17 -9.754961E-01  0.000000E+00
  8.365770E-01  4.413861E-02  5.000000E-01  8.450220E-01  4.475775E-02  0.000000E+00  2.156469E-02 -2.376489E-03  9.705484E-18 -9.372496E-01  0.000000E+00
  8.234620E-01  4.547424E-02  5.000000E-01  8.317746E-01  4.610686E-02  0.000000E+00  2.102183E-02 -1.989292E-03  9.464498E-18 -9.013771E-01  0.000000E+00
  8.097400E-01  4.667224E-02  5.000000E-01  8.179141E-01  4.731696E-02  0.000000E+00  2.039065E-02 -1.674534E-03  9.281757E-18 -8.718250E-01  0.000000E+00
  7.954150E-01  4.777046E-02  5.000000E-01  8.034445E-01  4.842626E-02  0.000000E+00  1.973809E-02 -1.474528E-03  9.810360E-18 -8.537108E-01  0.000000E+00
  7.804870E-01  4.884910E-02  5.000000E-01  7.883658E-01  4.951580E-02  0.000000E+00  1.917057E-02 -1.417069E-03  9.878968E-18 -8.505950E-01  0.000000E+00
  7.649630E-01  5.001911E-02  5.000000E-01  7.726851E-01  5.069762E-02  0.000000E+00  1.885152E-02 -1.473293E-03  7.782783E-18 -8.600474E-01  0.000000E+00
  7.488530E-01  5.132507E-02  5.000000E-01  7.564125E-01  5.201676E-02  0.000000E+00  1.888008E-02 -1.590555E-03  2.891657E-18 -8.762446E-01  0.000000E+00
  7.321700E-01  5.278425E-02  5.000000E-01  7.395611E-01  5.349067E-02  0.000000E+00  1.919813E-02 -1.743468E-03 -2.743373E-18 -8.951075E-01  0.000000E+00
  7.149290E-01  5.440650E-02  5.000000E-01  7.221460E-01  5.512930E-02  0.000000E+00  1.968108E-02 -1.913191E-03 -7.651826E-18 -9.137427E-01  0.000000E+00
  6.971500E-01  5.618846E-02  5.000000E-01  7.041876E-01  5.692924E-02  0.000000E+00  2.022522E-02 -2.074058E-03 -1.215207E-17 -9.294886E-01  0.000000E+00
  6.788570E-01  5.810648E-02  5.000000E-01  6.857099E-01  5.886663E-02  0.000000E+00  2.077635E-02 -2.193857E-03 -1.634705E-17 -9.396901E-01  0.000000E+00
  6.600760E-01  6.010598E-02  5.000000E-01  6.667393E-01  6.088630E-02  0.000000E+00  2.130243E-02 -2.244380E-03 -1.946175E-17 -9.425333E-01  0.000000E+00
  6.408370E-01  6.211366E-02  5.000000E-01  6.473061E-01  6.291426E-02  0.000000E+00  2.175388E-02 -2.223332E-03 -1.975738E-17 -9.385351E-01  0.000000E+00
  6.211780E-01  6.408072E-02  5.000000E-01  6.274486E-01  6.490117E-02  0.000000E+00  2.209914E-02 -2.145828E-03 -1.869443E-17 -9.294545E-01  0.000000E+00
  6.011430E-01  6.596724E-02  5.000000E-01  6.072114E-01  6.680674E-02  0.000000E+00  2.235646E-02 -2.023649E-03 -1.811966E-17 -9.165323E-01  0.000000E+00
  5.807790E-01  6.773672E-02  5.000000E-01  5.866418E-01  6.859408E-02  0.000000E+00  2.255702E-02 -1.868271E-03 -1.721186E-17 -9.007412E-01  0.000000E+00
  5.601410E-01  6.936267E-02  5.000000E-01  5.657955E-01  7.023644E-02  0.000000E+00  2.272731E-02 -1.688765E-03 -1.464155E-17 -8.828033E-01  0.000000E+00
  5.392850E-01  7.082000E-02  5.000000E-01  5.447290E-01  7.170848E-02  0.000000E+00  2.288120E-02 -1.492702E-03 -1.192958E-17 -8.634268E-01  0.000000E+00
  5.182680E-01  7.209380E-02  5.000000E-01  5.234998E-01  7.299514E-02  0.000000E+00  2.301758E-02 -1.292226E-03 -1.109401E-17 -8.437060E-01  0.000000E+00
  4.971500E-01  7.318484E-02  5.000000E-01  5.021686E-01  7.409719E-02  0.000000E+00  2.314491E-02 -1.095229E-03 -1.059477E-17 -8.244059E-01  0.000000E+00
  4.759900E-01  7.409447E-02  5.000000E-01  4.807950E-01  7.501600E-02  0.000000E+00  2.328190E-02 -9.019517E-04 -9.335965E-18 -8.056753E-01  0.000000E+00
  2.733630E-06 -4.857956E-04  5.000000E-01  2.813636E-06 -3.171210E-04  0.000000E+00  4.677541E-04 -1.838237E-02  1.111700E-18  1.097122E+00  0.000000E+00
  4.455870E-05 -1.427278E-03  5.000000E-01  4.506092E-05 -1.268108E-03  0.000000E+00  2.255056E-03 -2.188179E-02  2.911943E-17  1.067836E+00  0.000000E+00
  2.731490E-04 -2.960551E-03  5.000000E-01  2.759588E-04 -2.816858E-03  0.000000E+00  6.583991E-03 -2.483864E-02  4.214290E-17  9.471571E-01  0.000000E+00
  9.950900E-04 -4.916320E-03  5.000000E-01  1.005188E-03 -4.792370E-03  0.000000E+00  1.276407E-02 -2.520572E-02  4.215322E-17  7.374914E-01  0.000000E+00
  2.349870E-03 -6.992234E-03  5.000000E-01  2.373644E-03 -6.889240E-03  0.000000E+00  1.845521E-02 -2.401105E-02  3.966011E-17  5.283711E-01  0.000000E+00
  4.254460E-03 -9.121435E-03  5.000000E-01  4.297460E-03 -9.039935E-03  0.000000E+00  2.307393E-02 -2.270140E-02  2.691626E-17  3.569277E-01  0.000000E+00
  6.687140E-03 -1.124526E-02  5.000000E-01  6.754697E-03 -1.118520E-02  0.000000E+00  2.707800E-02 -2.121845E-02  6.035345E-18  1.941301E-01  0.000000E+00
  9.634000E-03 -1.332614E-02  5.000000E-01  9.731305E-03 -1.328709E-02  0.000000E+00  3.034524E-02 -1.921912E-02 -6.203868E-18  2.870661E-02  0.000000E+00
  1.310530E-02 -1.529643E-02  5.000000E-01  1.323765E-02 -1.527727E-02  0.000000E+00  3.257931E-02 -1.656602E-02 -1.173122E-18 -1.352967E-01  0.000000E+00
  1.710810E-02 -1.710440E-02  5.000000E-01  1.728085E-02 -1.710349E-02  0.000000E+00  3.384641E-02 -1.379130E-02  2.386269E-17 -2.754655E-01  0.000000E+00
  2.163760E-02 -1.875066E-02  5.000000E-01  2.185608E-02 -1.876636E-02  0.000000E+00  3.453668E-02 -1.137318E-02  5.643985E-17 -3.824275E-01  0.000000E+00
  2.669190E-02 -2.024493E-02  5.000000E-01  2.696140E-02 -2.027572E-02  0.000000E+00  3.479537E-02 -9.238931E-03  7.980387E-17 -4.686635E-01  0.000000E+00
  3.228310E-02 -2.156309E-02  5.000000E-01  3.260904E-02 -2.160718E-02  0.000000E+00  3.458101E-02 -7.265216E-03  8.940030E-17 -5.438629E-01  0.000000E+00
  3.842170E-02 -2.269312E-02  5.000000E-01  3.880961E-02 -2.274862E-02  0.000000E+00  3.397686E-02 -5.528546E-03  9.018033E-17 -6.069817E-01  0.000000E+00
  4.511710E-02 -2.363588E-02  5.000000E-01  4.557259E-02 -2.370089E-02  0.000000E+00  3.311142E-02 -4.074908E-03  8.541032E-17 -6.567578E-01  0.000000E+00
  5.237940E-02 -2.439675E-02  5.000000E-01  5.290821E-02 -2.446945E-02  0.000000E+00  3.210724E-02 -2.909053E-03  7.562870E-17 -6.927850E-01  0.000000E+00
  6.021800E-02 -2.499155E-02  5.000000E-01  6.082593E-02 -2.507026E-02  0.000000E+00  3.108314E-02 -2.023051E-03  6.503664E-17 -7.150134E-01  0.000000E+00
  6.864140E-02 -2.544566E-02  5.000000E-01  6.933437E-02 -2.552894E-02  0.000000E+00  3.009011E-02 -1.372467E-03  5.450925E-17 -7.250544E-01  0.000000E+00
  7.765990E-02 -2.578023E-02  5.000000E-01  7.844390E-02 -2.586689E-02  0.000000E+00  2.911281E-02 -9.062405E-04  4.428280E-17 -7.247125E-01  0.000000E+00
  8.728340E-02 -2.602056E-02  5.000000E-01  8.816455E-02 -2.610965E-02  0.000000E+00  2.809859E-02 -5.973111E-04  3.609902E-17 -7.143495E-01  0.000000E+00
  9.752070E-02 -2.619901E-02  5.000000E-01  9.850519E-02 -2.628991E-02  0.000000E+00  2.691911E-02 -4.192827E-04  2.948602E-17 -6.938968E-01  0.000000E+00
  1.083810E-01 -2.634772E-02  5.000000E-01  1.094751E-01 -2.644011E-02  0.000000E+00  2.541303E-02 -3.452139E-04  2.326143E-17 -6.626715E-01  0.000000E+00
  1.198710E-01 -2.650260E-02  5.000000E-01  1.210811E-01 -2.659655E-02  0.000000E+00  2.353051E-02 -3.532919E-04  1.693228E-17 -6.188151E-01  0.000000E+00
  1.319970E-01 -2.670368E-02  5.000000E-01  1.333295E-01 -2.679967E-02  0.000000E+00  2.146568E-02 -4.175031E-04  1.259126E-17 -5.605332E-01  0.000000E+00
  1.319970E-01 -2.670368E-02  5.000000E-01  1.333295E-01 -2.679967E-02  0.000000E+00  2.146568E-02 -4.175031E-04  1.259126E-17 -5.605332E-01  0.000000E+00
  1.447640E-01 -2.698850E-02  5.000000E-01  1.462254E-01 -2.708736E-02  0.000000E+00  1.966758E-02 -5.160382E-04  8.720818E-18 -4.884481E-01  0.000000E+00
  1.581750E-01 -2.739143E-02  5.000000E-01  1.597718E-01 -2.749436E-02  0.000000E+00  1.863725E-02 -6.400045E-04  5.807460E-18 -4.092101E-01  0.000000E+00
  1.722290E-01 -2.793267E-02  5.000000E-01  1.739676E-01 -2.804107E-02  0.000000E+00  1.861883E-02 -7.791134E-04  4.744103E-18 -3.375290E-01  0.000000E+00
  1.869240E-01 -2.859852E-02  5.000000E-01  1.888110E-01 -2.871364E-02  0.000000E+00  1.945004E-02 -8.882592E-04  3.391769E-18 -2.920269E-01  0.000000E+00
  2.022540E-01 -2.931536E-02  5.000000E-01  2.042957E-01 -2.943771E-02  0.000000E+00  2.065891E-02 -8.628645E-04  3.232803E-18 -2.861658E-01  0.000000E+00
  2.182110E-01 -2.991847E-02  5.000000E-01  2.204138E-01 -3.004691E-02  0.000000E+00  2.175119E-02 -6.443735E-04  2.520860E-18 -3.159001E-01  0.000000E+00
  2.347810E-01 -3.027945E-02  5.000000E-01  2.371511E-01 -3.041153E-02  0.000000E+00  2.243070E-02 -3.181257E-04  1.619981E-18 -3.593917E-01  0.000000E+00
  2.519470E-01 -3.038876E-02  5.000000E-01  2.544904E-01 -3.052195E-02  0.000000E+00  2.253074E-02  8.926728E-06  1.428801E-18 -3.958109E-01  0.000000E+00
  2.696890E-01 -3.025646E-02  5.000000E-01  2.724115E-01 -3.038831E-02  0.000000E+00  2.200107E-02  2.819388E-04  1.297369E-18 -4.144860E-01  0.000000E+00
  2.879810E-01 -2.991624E-02  5.000000E-01  2.908881E-01 -3.004465E-02  0.000000E+00  2.102087E-02  4.607138E-04  1.256688E-18 -4.110997E-01  0.000000E+00
  3.067920E-01 -2.943312E-02  5.000000E-01  3.098890E-01 -2.955666E-02  0.000000E+00  1.996511E-02  5.271885E-04  1.702132E-18 -3.869048E-01  0.000000E+00
  3.260870E-01 -2.890317E-02  5.000000E-01  3.293788E-01 -2.902136E-02  0.000000E+00  1.922696E-02  4.950356E-04  2.109704E-18 -3.494759E-01  0.000000E+00
  3.458260E-01 -2.843004E-02  5.000000E-01  3.493171E-01 -2.854345E-02  0.000000E+00  1.899110E-02  4.292331E-04  1.770458E-18 -3.134966E-01  0.000000E+00
  3.659650E-01 -2.801026E-02  5.000000E-01  3.696594E-01 -2.811944E-02  0.000000E+00  1.920486E-02  4.023597E-04  3.038718E-18 -2.930629E-01  0.000000E+00
  3.864540E-01 -2.758564E-02  5.000000E-01  3.903552E-01 -2.769053E-02  0.000000E+00  1.969790E-02  4.396699E-04  1.337645E-18 -2.925323E-01  0.000000E+00
  4.072410E-01 -2.709302E-02  5.000000E-01  4.113520E-01 -2.719294E-02  0.000000E+00  2.021282E-02  5.420545E-04 -1.643480E-18 -3.080050E-01  0.000000E+00
  4.282690E-01 -2.646789E-02  5.000000E-01  4.325923E-01 -2.656149E-02  0.000000E+00  2.042172E-02  7.008039E-04 -2.390125E-19 -3.312687E-01  0.000000E+00
  4.494800E-01 -2.564391E-02  5.000000E-01  4.540174E-01 -2.572920E-02  0.000000E+00  2.005347E-02  8.765247E-04  3.709481E-19 -3.505679E-01  0.000000E+00
  4.708130E-01 -2.459965E-02  5.000000E-01  4.755658E-01 -2.467439E-02  0.000000E+00  1.906421E-02  1.006976E-03 -3.524525E-19 -3.526241E-01  0.000000E+00
  4.922030E-01 -2.337238E-02  5.000000E-01  4.971717E-01 -2.343474E-02  0.000000E+00  1.767650E-02  1.067278E-03 -3.409426E-19 -3.294636E-01  0.000000E+00
  5.135860E-01 -2.200273E-02  5.000000E-01  5.187705E-01 -2.205126E-02  0.000000E+00  1.626544E-02  1.080161E-03  7.127206E-19 -2.829651E-01  0.000000E+00
  5.348990E-01 -2.052839E-02  5.000000E-01  5.402987E-01 -2.056204E-02  0.000000E+00  1.516226E-02  1.076266E-03  2.081197E-18 -2.240127E-01  0.000000E+00
  5.560760E-01 -1.898803E-02  5.000000E-01  5.616895E-01 -1.900613E-02  0.000000E+00  1.448656E-02  1.078579E-03  3.249672E-19 -1.681948E-01  0.000000E+00
  4.759900E-01  7.409447E-02  5.000000E-01  4.807950E-01  7.501600E-02  0.000000E+00  2.328190E-02 -9.019517E-04 -9.335965E-18 -8.056753E-01  0.000000E+00
  4.548480E-01  7.482374E-02  5.000000E-01  4.594396E-01  7.575264E-02  0.000000E+00  2.343793E-02 -7.119699E-04 -8.731239E-18 -7.874630E-01  0.000000E+00
  4.337860E-01  7.537656E-02  5.000000E-01  4.381650E-01  7.631104E-02  0.000000E+00  2.361620E-02 -5.210292E-04 -9.350213E-18 -7.692480E-01  0.000000E+00
  4.128620E-01  7.575128E-02  5.000000E-01  4.170298E-01  7.668954E-02  0.000000E+00  2.381945E-02 -3.152770E-04 -8.834615E-18 -7.496817E-01  0.000000E+00
  3.921340E-01  7.593022E-02  5.000000E-01  3.960925E-01  7.687029E-02  0.000000E+00  2.403179E-02 -8.200250E-05 -8.636785E-18 -7.274098E-01  0.000000E+00
  3.716590E-01  7.589455E-02  5.000000E-01  3.754108E-01  7.683426E-02  0.000000E+00  2.421756E-02  1.825464E-04 -8.251275E-18 -7.017343E-01  0.000000E+00
  3.514890E-01  7.562702E-02  5.000000E-01  3.550372E-01  7.656403E-02  0.000000E+00  2.434235E-02  4.770715E-04 -7.430376E-18 -6.725120E-01  0.000000E+00
  3.316730E-01  7.511462E-02  5.000000E-01  3.350212E-01  7.604645E-02  0.000000E+00  2.437879E-02  7.934220E-04 -6.705012E-18 -6.404225E-01  0.000000E+00
  3.122580E-01  7.435303E-02  5.000000E-01  3.154102E-01  7.527718E-02  0.000000E+00  2.430118E-02  1.108105E-03 -5.344833E-18 -6.075316E-01  0.000000E+00
  2.932850E-01  7.336533E-02  5.000000E-01  2.962457E-01  7.427951E-02  0.000000E+00  2.410620E-02  1.397061E-03 -3.809523E-18 -5.762253E-01  0.000000E+00
  2.747930E-01  7.218275E-02  5.000000E-01  2.775670E-01  7.308499E-02  0.000000E+00  2.382608E-02  1.655042E-03 -2.857112E-18 -5.477088E-01  0.000000E+00
  2.568150E-01  7.083336E-02  5.000000E-01  2.594075E-01  7.172198E-02  0.000000E+00  2.350292E-02  1.887634E-03 -3.371548E-18 -5.222968E-01  0.000000E+00
  2.393810E-01  6.934078E-02  5.000000E-01  2.417975E-01  7.021433E-02  0.000000E+00  2.317327E-02  2.103415E-03 -3.513003E-18 -5.001823E-01  0.000000E+00
  2.225160E-01  6.772411E-02  5.000000E-01  2.247623E-01  6.858134E-02  0.000000E+00  2.286513E-02  2.308744E-03 -2.061883E-18 -4.825401E-01  0.000000E+00
  2.062420E-01  6.599798E-02  5.000000E-01  2.083240E-01  6.683779E-02  0.000000E+00  2.258073E-02  2.475739E-03 -1.043110E-18 -4.741435E-01  0.000000E+00
  1.905750E-01  6.421899E-02  5.000000E-01  1.924988E-01  6.504084E-02  0.000000E+00  2.233963E-02  2.547978E-03 -2.027963E-18 -4.821837E-01  0.000000E+00
  1.755290E-01  6.249026E-02  5.000000E-01  1.773010E-01  6.329466E-02  0.000000E+00  2.228723E-02  2.545142E-03 -2.151852E-18 -5.072295E-01  0.000000E+00
  1.611160E-01  6.085404E-02  5.000000E-01  1.627425E-01  6.164192E-02  0.000000E+00  2.260347E-02  2.548389E-03 -1.384498E-18 -5.422741E-01  0.000000E+00
  1.473410E-01  5.931291E-02  5.000000E-01  1.488284E-01  6.008524E-02  0.000000E+00  2.332444E-02  2.605980E-03 -1.720047E-18 -5.796760E-01  0.000000E+00
  1.342110E-01  5.784945E-02  5.000000E-01  1.355659E-01  5.860700E-02  0.000000E+00  2.433510E-02  2.733063E-03 -4.283688E-19 -6.139555E-01  0.000000E+00
  1.217280E-01  5.643814E-02  5.000000E-01  1.229569E-01  5.718144E-02  0.000000E+00  2.545885E-02  2.929709E-03  2.576522E-18 -6.424758E-01  0.000000E+00
  1.098910E-01  5.505335E-02  5.000000E-01  1.110004E-01  5.578267E-02  0.000000E+00  2.656380E-02  3.201628E-03  4.340471E-18 -6.642524E-01  0.000000E+00
  9.869950E-02  5.366631E-02  5.000000E-01  9.969589E-02  5.438164E-02  0.000000E+00  2.760054E-02  3.564256E-03  5.765531E-18 -6.789264E-01  0.000000E+00
  8.814970E-02  5.225060E-02  5.000000E-01  8.903960E-02  5.295164E-02  0.000000E+00  2.858357E-02  4.043617E-03  9.766132E-18 -6.860355E-01  0.000000E+00
  8.814970E-02  5.225060E-02  5.000000E-01  8.903960E-02  5.295164E-02  0.000000E+00  2.858357E-02  4.043617E-03  9.766132E-18 -6.860355E-01  0.000000E+00
  7.823720E-02  5.077855E-02  5.000000E-01  7.902703E-02  5.146472E-02  0.000000E+00  2.955350E-02  4.682653E-03  1.546197E-17 -6.842881E-01  0.000000E+00
  6.895800E-02  4.921873E-02  5.000000E-01  6.965416E-02  4.988916E-02  0.000000E+00  3.052199E-02  5.523375E-03  1.975683E-17 -6.721772E-01  0.000000E+00
  6.030560E-02  4.754489E-02  5.000000E-01  6.091442E-02  4.819842E-02  0.000000E+00  3.147318E-02  6.620243E-03  2.076033E-17 -6.472322E-01  0.000000E+00
  5.227560E-02  4.572454E-02  5.000000E-01  5.280336E-02  4.635970E-02  0.000000E+00  3.234791E-02  8.034564E-03  1.859599E-17 -6.059354E-01  0.000000E+00
  4.486350E-02  4.372678E-02  5.000000E-01  4.531643E-02  4.434177E-02  0.000000E+00  3.300505E-02  9.787657E-03  1.515238E-17 -5.452515E-01  0.000000E+00
  3.806240E-02  4.152941E-02  5.000000E-01  3.844668E-02  4.212221E-02  0.000000E+00  3.325944E-02  1.187712E-02  7.999656E-18 -4.612952E-01  0.000000E+00
  3.186880E-02  3.910787E-02  5.000000E-01  3.219056E-02  3.967623E-02  0.000000E+00  3.286689E-02  1.421096E-02 -8.017881E-19 -3.508665E-01  0.000000E+00
  2.627530E-02  3.645254E-02  5.000000E-01  2.654059E-02  3.699409E-02  0.000000E+00  3.157275E-02  1.656328E-02 -5.785092E-18 -2.131862E-01  0.000000E+00
  2.127350E-02  3.356578E-02  5.000000E-01  2.148830E-02  3.407820E-02  0.000000E+00  2.925093E-02  1.865875E-02 -9.090329E-18 -4.830962E-02  0.000000E+00
  1.685790E-02  3.045477E-02  5.000000E-01  1.702813E-02  3.093578E-02  0.000000E+00  2.595006E-02  2.013987E-02 -1.293995E-17  1.381987E-01  0.000000E+00
  1.301460E-02  2.715463E-02  5.000000E-01  1.314603E-02  2.760233E-02  0.000000E+00  2.192872E-02  2.071566E-02 -1.830307E-17  3.367309E-01  0.000000E+00
  9.730790E-03  2.371077E-02  5.000000E-01  9.829072E-03  2.412370E-02  0.000000E+00  1.758786E-02  2.031626E-02 -2.462340E-17  5.382133E-01  0.000000E+00
  6.996180E-03  2.017818E-02  5.000000E-01  7.066857E-03  2.055545E-02  0.000000E+00  1.333489E-02  1.892242E-02 -2.563354E-17  7.276195E-01  0.000000E+00
  4.781010E-03  1.664841E-02  5.000000E-01  4.829325E-03  1.699005E-02  0.000000E+00  9.483777E-03  1.662917E-02 -1.867214E-17  8.913493E-01  0.000000E+00
  3.054950E-03  1.321704E-02  5.000000E-01  3.085841E-03  1.352404E-02  0.000000E+00  6.193205E-03  1.365269E-02 -1.460332E-17  1.024828E+00  0.000000E+00
  1.789910E-03  9.979324E-03  5.000000E-01  1.808031E-03  1.025364E-02  0.000000E+00  3.551677E-03  1.012344E-02 -1.654561E-17  1.123453E+00  0.000000E+00
  9.331870E-04  7.044399E-03  5.000000E-01  9.426596E-04  7.289088E-03  0.000000E+00  1.620932E-03  6.123513E-03 -1.854758E-17  1.183517E+00  0.000000E+00
  4.085430E-04  4.520859E-03  5.000000E-01  4.127195E-04  4.740074E-03  0.000000E+00  3.821278E-04  1.742275E-03 -2.170887E-17  1.207872E+00  0.000000E+00
  1.354760E-04  2.496046E-03  5.000000E-01  1.368960E-04  2.694822E-03  0.000000E+00 -2.384714E-04 -2.983104E-03 -2.945142E-17  1.204230E+00  0.000000E+00
  2.683130E-05  1.022144E-03  5.000000E-01  2.715456E-05  1.206040E-03  0.000000E+00 -3.432022E-04 -8.046227E-03 -3.869694E-17  1.180936E+00  0.000000E+00
  1.320070E-06  1.278068E-04  5.000000E-01  1.385807E-06  3.026755E-04  0.000000E+00 -2.073262E-04 -1.296665E-02 -4.114618E-17  1.140632E+00  0.000000E+00
 -5.188750E-08 -1.718438E-04  5.000000E-01  0.000000E+00  0.000000E+00  0.000000E+00 -4.370221E-05 -1.609009E-02 -2.744560E-17  1.105703E+00  0.000000E+00