 Title = "ADflow Slice Data"
Variables =  "CoordinateX"  "CoordinateY"  "CoordinateZ"  "XoC"  "YoC"  "ZoC" "VelocityX" "VelocityY" "VelocityZ" "CoefPressure" "Mach" 
Zone T= "Slice_0001 None Absolute Regular z = 0.50000000"
 Nodes =          192  Elements=          184  ZONETYPE=FELINESEG
 DATAPACKING=POINT
  5.560760E-01 -1.894143E-02  5.000000E-01  5.616895E-01 -1.895854E-02  0.000000E+00  1.508108E-02  1.100515E-03  6.069875E-19 -1.700703E-01  0.000000E+00
  5.770550E-01 -1.737686E-02  5.000000E-01  5.828802E-01 -1.737817E-02  0.000000E+00  1.469262E-02  1.130801E-03  1.506344E-18 -1.391227E-01  0.000000E+00
  5.977760E-01 -1.573678E-02  5.000000E-01  6.038104E-01 -1.572154E-02  0.000000E+00  1.432461E-02  1.176893E-03  8.620059E-19 -1.164477E-01  0.000000E+00
  6.181820E-01 -1.399877E-02  5.000000E-01  6.244224E-01 -1.396598E-02  0.000000E+00  1.384627E-02  1.230311E-03  8.495235E-19 -9.719652E-02  0.000000E+00
  6.382180E-01 -1.213978E-02  5.000000E-01  6.446607E-01 -1.208823E-02  0.000000E+00  1.317954E-02  1.276820E-03 -4.991576E-19 -7.501187E-02  0.000000E+00
  6.578350E-01 -1.015006E-02  5.000000E-01  6.644757E-01 -1.007843E-02  0.000000E+00  1.231622E-02  1.299994E-03 -1.002646E-18 -4.544416E-02  0.000000E+00
  6.769910E-01 -8.039763E-03  5.000000E-01  6.838251E-01 -7.946824E-03  0.000000E+00  1.129506E-02  1.289692E-03  6.194449E-19 -8.039696E-03  0.000000E+00
  6.956490E-01 -5.826528E-03  5.000000E-01  7.026714E-01 -5.711246E-03  0.000000E+00  1.017085E-02  1.242284E-03  2.208320E-18  3.471236E-02  0.000000E+00
  7.137810E-01 -3.541155E-03  5.000000E-01  7.209864E-01 -3.402804E-03  0.000000E+00  8.996324E-03  1.157731E-03 -8.548483E-19  7.983339E-02  0.000000E+00
  7.313660E-01 -1.226175E-03  5.000000E-01  7.387490E-01 -1.064455E-03  0.000000E+00  7.812925E-03  1.042834E-03 -1.418058E-18  1.248383E-01  0.000000E+00
  7.483850E-01  1.080436E-03  5.000000E-01  7.559398E-01  1.265441E-03  0.000000E+00  6.657165E-03  9.111636E-04  1.021085E-18  1.680053E-01  0.000000E+00
  7.648220E-01  3.354053E-03  5.000000E-01  7.725427E-01  3.562009E-03  0.000000E+00  5.577058E-03  7.770102E-04 -7.460456E-19  2.083571E-01  0.000000E+00
  7.806630E-01  5.577624E-03  5.000000E-01  7.885436E-01  5.808026E-03  0.000000E+00  4.645947E-03  6.462008E-04 -1.576374E-18  2.461549E-01  0.000000E+00
  7.958970E-01  7.682721E-03  5.000000E-01  8.039314E-01  7.934373E-03  0.000000E+00  3.960375E-03  5.186976E-04  1.014027E-18  2.829038E-01  0.000000E+00
  8.105170E-01  9.483208E-03  5.000000E-01  8.186990E-01  9.753036E-03  0.000000E+00  3.585282E-03  4.030737E-04  2.421603E-18  3.158120E-01  0.000000E+00
  8.245160E-01  1.088519E-02  5.000000E-01  8.328393E-01  1.116917E-02  0.000000E+00  3.508045E-03  3.075196E-04  7.736482E-19  3.394032E-01  0.000000E+00
  8.378940E-01  1.188534E-02  5.000000E-01  8.463523E-01  1.217941E-02  0.000000E+00  3.666850E-03  2.273319E-04 -7.172580E-19  3.531480E-01  0.000000E+00
  8.506490E-01  1.252532E-02  5.000000E-01  8.592361E-01  1.282585E-02  0.000000E+00  3.994904E-03  1.531846E-04 -1.424591E-18  3.600600E-01  0.000000E+00
  8.627850E-01  1.286327E-02  5.000000E-01  8.714946E-01  1.316722E-02  0.000000E+00  4.437498E-03  7.762334E-05 -8.172879E-19  3.627141E-01  0.000000E+00
  8.743060E-01  1.295872E-02  5.000000E-01  8.831319E-01  1.326363E-02  0.000000E+00  4.950696E-03 -3.462323E-06 -4.550776E-19  3.622648E-01  0.000000E+00
  8.852170E-01  1.286329E-02  5.000000E-01  8.941530E-01  1.316724E-02  0.000000E+00  5.500053E-03 -9.160653E-05  1.723614E-19  3.593463E-01  0.000000E+00
  8.955250E-01  1.261806E-02  5.000000E-01  9.045651E-01  1.291954E-02  0.000000E+00  6.061424E-03 -1.868965E-04  1.150087E-18  3.544778E-01  0.000000E+00
  9.052400E-01  1.225609E-02  5.000000E-01  9.143782E-01  1.255391E-02  0.000000E+00  6.621472E-03 -2.893570E-04  6.517672E-19  3.480642E-01  0.000000E+00
  9.143710E-01  1.180315E-02  5.000000E-01  9.236013E-01  1.209640E-02  0.000000E+00  7.178947E-03 -4.017854E-04 -6.979949E-19  3.405357E-01  0.000000E+00
  9.143710E-01  1.180315E-02  5.000000E-01  9.236013E-01  1.209640E-02  0.000000E+00  7.178947E-03 -4.017854E-04 -6.979949E-19  3.405357E-01  0.000000E+00
  9.229270E-01  1.127428E-02  5.000000E-01  9.322437E-01  1.156219E-02  0.000000E+00  7.744088E-03 -5.297088E-04 -2.288971E-18  3.321307E-01  0.000000E+00
  9.309180E-01  1.067888E-02  5.000000E-01  9.403154E-01  1.096078E-02  0.000000E+00  8.334155E-03 -6.784003E-04 -1.422200E-18  3.225984E-01  0.000000E+00
  9.383550E-01  1.002576E-02  5.000000E-01  9.478274E-01  1.030106E-02  0.000000E+00  8.969737E-03 -8.528035E-04  1.157258E-19  3.114767E-01  0.000000E+00
  9.452490E-01  9.323822E-03  5.000000E-01  9.547910E-01  9.592041E-03  0.000000E+00  9.674294E-03 -1.059679E-03  3.152602E-19  2.983843E-01  0.000000E+00
  9.516100E-01  8.581671E-03  5.000000E-01  9.612162E-01  8.842399E-03  0.000000E+00  1.047427E-02 -1.307667E-03  9.580874E-19  2.829248E-01  0.000000E+00
  9.574470E-01  7.808963E-03  5.000000E-01  9.671122E-01  8.061890E-03  0.000000E+00  1.139727E-02 -1.605678E-03  7.644583E-19  2.645006E-01  0.000000E+00
  9.627730E-01  7.017080E-03  5.000000E-01  9.724919E-01  7.262013E-03  0.000000E+00  1.247150E-02 -1.963265E-03 -5.727531E-19  2.424283E-01  0.000000E+00
  9.675950E-01  6.219586E-03  5.000000E-01  9.773626E-01  6.456469E-03  0.000000E+00  1.372810E-02 -2.390031E-03 -5.885782E-19  2.159905E-01  0.000000E+00
  9.719240E-01  5.431704E-03  5.000000E-01  9.817353E-01  5.660634E-03  0.000000E+00  1.520768E-02 -2.896316E-03  3.731853E-19  1.843619E-01  0.000000E+00
  9.757700E-01  4.669954E-03  5.000000E-01  9.856201E-01  4.891193E-03  0.000000E+00  1.697394E-02 -3.498597E-03  2.336033E-18  1.467140E-01  0.000000E+00
  9.791410E-01  3.950949E-03  5.000000E-01  9.890252E-01  4.164931E-03  0.000000E+00  1.912634E-02 -4.222449E-03  8.723574E-19  1.021495E-01  0.000000E+00
  9.820450E-01  3.290674E-03  5.000000E-01  9.919585E-01  3.497990E-03  0.000000E+00  2.178273E-02 -5.099236E-03 -2.654477E-17  4.932968E-02  0.000000E+00
  9.844890E-01  2.703958E-03  5.000000E-01  9.944272E-01  2.905352E-03  0.000000E+00  2.500599E-02 -6.152983E-03 -1.129333E-16 -1.344092E-02  0.000000E+00
  9.864800E-01  2.204167E-03  5.000000E-01  9.964382E-01  2.400515E-03  0.000000E+00  2.872185E-02 -7.338280E-03 -2.300441E-16 -8.658963E-02  0.000000E+00
  9.880230E-01  1.803066E-03  5.000000E-01  9.979968E-01  1.995365E-03  0.000000E+00  3.241212E-02 -8.455120E-03 -7.061665E-17 -1.770842E-01  0.000000E+00
  9.891220E-01  1.509930E-03  5.000000E-01  9.991069E-01  1.699270E-03  0.000000E+00  3.584764E-02 -9.732304E-03  1.224799E-15 -2.857460E-01  0.000000E+00
  9.897810E-01  1.331325E-03  5.000000E-01  9.997726E-01  1.518862E-03  0.000000E+00  5.261425E-02 -1.244296E-02  4.599283E-15 -3.041478E-01  0.000000E+00
  9.900000E-01  1.271367E-03  5.000000E-01  9.999938E-01  1.458300E-03  0.000000E+00  3.638835E-02 -2.269632E-03  1.209361E-14 -6.784316E-01  0.000000E+00
  9.900000E-01  1.680873E-03  5.000000E-01  9.999938E-01  1.871939E-03  0.000000E+00  2.117035E-03 -7.784158E-03  3.564620E-14 -9.774910E-01  0.000000E+00
  9.900000E-01  2.090378E-03  5.000000E-01  9.999938E-01  2.285578E-03  0.000000E+00 -5.402526E-04 -2.190049E-02  6.943412E-14 -8.221847E-01  0.000000E+00
  9.900000E-01  2.499884E-03  5.000000E-01  9.999938E-01  2.699217E-03  0.000000E+00 -1.398980E-04 -1.344469E-02  9.591569E-14 -7.946832E-01  0.000000E+00
  9.900000E-01  2.909374E-03  5.000000E-01  9.999938E-01  3.112842E-03  0.000000E+00  3.201891E-04 -8.288980E-03  1.143560E-13 -8.248299E-01  0.000000E+00
  9.900000E-01  3.318880E-03  5.000000E-01  9.999938E-01  3.526481E-03  0.000000E+00  4.480254E-03 -6.760281E-03  1.276883E-13 -7.895183E-01  0.000000E+00
  9.900000E-01  3.318880E-03  5.000000E-01  9.999938E-01  3.526481E-03  0.000000E+00  4.480254E-03 -6.760281E-03  1.276883E-13 -7.895183E-01  0.000000E+00
  9.897980E-01  3.423100E-03  5.000000E-01  9.997897E-01  3.631753E-03  0.000000E+00  5.461634E-03 -3.356682E-03  1.197276E-13 -7.411821E-01  0.000000E+00
  9.891900E-01  3.735754E-03  5.000000E-01  9.991756E-01  3.947563E-03  0.000000E+00  1.159522E-03 -5.325869E-04  8.501002E-14 -7.492266E-01  0.000000E+00
  9.881780E-01  4.256147E-03  5.000000E-01  9.981534E-01  4.473210E-03  0.000000E+00 -1.231310E-03  6.357863E-04  4.674719E-14 -7.562058E-01  0.000000E+00
  9.867570E-01  4.982970E-03  5.000000E-01  9.967180E-01  5.207370E-03  0.000000E+00 -2.599925E-03  1.314705E-03  1.906495E-14 -7.629403E-01  0.000000E+00
  9.849260E-01  5.912688E-03  5.000000E-01  9.948686E-01  6.146472E-03  0.000000E+00 -3.217754E-03  1.623676E-03  4.550138E-15 -7.726912E-01  0.000000E+00
  9.826810E-01  7.038793E-03  5.000000E-01  9.926009E-01  7.283945E-03  0.000000E+00 -3.232853E-03  1.611096E-03 -7.135145E-16 -7.818923E-01  0.000000E+00
  9.800160E-01  8.351514E-03  5.000000E-01  9.899090E-01  8.609918E-03  0.000000E+00 -2.929962E-03  1.428790E-03 -1.490080E-15 -7.875621E-01  0.000000E+00
  9.769240E-01  9.836736E-03  5.000000E-01  9.867858E-01  1.011013E-02  0.000000E+00 -2.605452E-03  1.231524E-03 -9.134270E-16 -7.897940E-01  0.000000E+00
  9.733970E-01  1.147327E-02  5.000000E-01  9.832232E-01  1.176318E-02  0.000000E+00 -2.447508E-03  1.108348E-03 -3.348619E-16 -7.905512E-01  0.000000E+00
  9.694240E-01  1.323454E-02  5.000000E-01  9.792101E-01  1.354224E-02  0.000000E+00 -2.516835E-03  1.083866E-03 -4.995764E-17 -7.917762E-01  0.000000E+00
  9.649940E-01  1.509376E-02  5.000000E-01  9.747354E-01  1.542022E-02  0.000000E+00 -2.810250E-03  1.151314E-03  2.824884E-17 -7.932211E-01  0.000000E+00
  9.600960E-01  1.703062E-02  5.000000E-01  9.697879E-01  1.737663E-02  0.000000E+00 -3.320578E-03  1.282338E-03  2.655095E-17 -7.936858E-01  0.000000E+00
  9.547180E-01  1.902484E-02  5.000000E-01  9.643556E-01  1.939098E-02  0.000000E+00 -3.917582E-03  1.395766E-03  1.195647E-17 -8.007032E-01  0.000000E+00
  9.488510E-01  2.105688E-02  5.000000E-01  9.584294E-01  2.144354E-02  0.000000E+00 -4.041752E-03  1.317966E-03  4.674557E-18 -8.374737E-01  0.000000E+00
  9.424820E-01  2.311133E-02  5.000000E-01  9.519961E-01  2.351873E-02  0.000000E+00 -2.550045E-03  7.785117E-04  4.615542E-18 -9.232940E-01  0.000000E+00
  9.356020E-01  2.517751E-02  5.000000E-01  9.450467E-01  2.560577E-02  0.000000E+00  1.842982E-03 -4.879343E-04  1.106704E-17 -1.040469E+00  0.000000E+00
  9.282010E-01  2.724902E-02  5.000000E-01  9.375709E-01  2.769818E-02  0.000000E+00  9.144120E-03 -2.387125E-03  2.297778E-17 -1.139433E+00  0.000000E+00
  9.202710E-01  2.932047E-02  5.000000E-01  9.295609E-01  2.979055E-02  0.000000E+00  1.695291E-02 -4.213467E-03  3.290454E-17 -1.185146E+00  0.000000E+00
  9.118010E-01  3.137937E-02  5.000000E-01  9.210054E-01  3.187023E-02  0.000000E+00  2.221371E-02 -5.189152E-03  3.601514E-17 -1.182463E+00  0.000000E+00
  9.027810E-01  3.340931E-02  5.000000E-01  9.118943E-01  3.392067E-02  0.000000E+00  2.409270E-02 -5.217358E-03  3.155365E-17 -1.155375E+00  0.000000E+00
  8.932000E-01  3.539417E-02  5.000000E-01  9.022166E-01  3.592556E-02  0.000000E+00  2.392543E-02 -4.750435E-03  2.410460E-17 -1.120940E+00  0.000000E+00
  8.830490E-01  3.731521E-02  5.000000E-01  8.919631E-01  3.786600E-02  0.000000E+00  2.322297E-02 -4.187961E-03  1.792990E-17 -1.084981E+00  0.000000E+00
  8.723190E-01  3.915107E-02  5.000000E-01  8.811248E-01  3.972039E-02  0.000000E+00  2.266436E-02 -3.672157E-03  1.429483E-17 -1.048269E+00  0.000000E+00
  8.723190E-01  3.915107E-02  5.000000E-01  8.811248E-01  3.972039E-02  0.000000E+00  2.266436E-02 -3.672157E-03  1.429483E-17 -1.048269E+00  0.000000E+00
  8.610010E-01  4.088063E-02  5.000000E-01  8.696926E-01  4.146741E-02  0.000000E+00  2.229048E-02 -3.204209E-03  1.283740E-17 -1.010595E+00  0.000000E+00
  8.490890E-01  4.248434E-02  5.000000E-01  8.576603E-01  4.308731E-02  0.000000E+00  2.194297E-02 -2.759502E-03  1.189566E-17 -9.720594E-01  0.000000E+00
  8.365770E-01  4.394630E-02  5.000000E-01  8.450220E-01  4.456402E-02  0.000000E+00  2.150136E-02 -2.334146E-03  1.102825E-17 -9.336726E-01  0.000000E+00
  8.234620E-01  4.526053E-02  5.000000E-01  8.317746E-01  4.589152E-02  0.000000E+00  2.093696E-02 -1.948339E-03  1.136276E-17 -8.978205E-01  0.000000E+00
  8.097400E-01  4.643769E-02  5.000000E-01  8.179141E-01  4.708056E-02  0.000000E+00  2.028647E-02 -1.637686E-03  1.209067E-17 -8.685775E-01  0.000000E+00
  7.954150E-01  4.751760E-02  5.000000E-01  8.034445E-01  4.817137E-02  0.000000E+00  1.962000E-02 -1.444899E-03  1.261880E-17 -8.512015E-01  0.000000E+00
  7.804870E-01  4.858351E-02  5.000000E-01  7.883658E-01  4.924805E-02  0.000000E+00  1.904746E-02 -1.397732E-03  1.176100E-17 -8.493152E-01  0.000000E+00
  7.649630E-01  4.975005E-02  5.000000E-01  7.726851E-01  5.042636E-02  0.000000E+00  1.873599E-02 -1.466518E-03  8.571215E-18 -8.603577E-01  0.000000E+00
  7.488530E-01  5.106353E-02  5.000000E-01  7.564125E-01  5.175309E-02  0.000000E+00  1.878580E-02 -1.597721E-03  4.392101E-18 -8.782550E-01  0.000000E+00
  7.321700E-01  5.254163E-02  5.000000E-01  7.395611E-01  5.324612E-02  0.000000E+00  1.913497E-02 -1.765199E-03 -2.105088E-18 -8.986895E-01  0.000000E+00
  7.149290E-01  5.419360E-02  5.000000E-01  7.221460E-01  5.491476E-02  0.000000E+00  1.965246E-02 -1.948567E-03 -8.411588E-18 -9.185455E-01  0.000000E+00
  6.971500E-01  5.601381E-02  5.000000E-01  7.041876E-01  5.675335E-02  0.000000E+00  2.022881E-02 -2.119684E-03 -1.339543E-17 -9.349612E-01  0.000000E+00
  6.788570E-01  5.797443E-02  5.000000E-01  6.857099E-01  5.873376E-02  0.000000E+00  2.080648E-02 -2.243556E-03 -1.735365E-17 -9.451434E-01  0.000000E+00
  6.600760E-01  6.001459E-02  5.000000E-01  6.667393E-01  6.079451E-02  0.000000E+00  2.135062E-02 -2.290496E-03 -2.034192E-17 -9.473078E-01  0.000000E+00
  6.408370E-01  6.205480E-02  5.000000E-01  6.473061E-01  6.285532E-02  0.000000E+00  2.180685E-02 -2.260679E-03 -2.158058E-17 -9.422936E-01  0.000000E+00
  6.211780E-01  6.404604E-02  5.000000E-01  6.274486E-01  6.486666E-02  0.000000E+00  2.214343E-02 -2.173504E-03 -2.074170E-17 -9.322419E-01  0.000000E+00
  6.011430E-01  6.595008E-02  5.000000E-01  6.072114E-01  6.678992E-02  0.000000E+00  2.238592E-02 -2.043277E-03 -1.889548E-17 -9.185798E-01  0.000000E+00
  5.807790E-01  6.773250E-02  5.000000E-01  5.866418E-01  6.859033E-02  0.000000E+00  2.257256E-02 -1.882744E-03 -1.688289E-17 -9.023488E-01  0.000000E+00
  5.601410E-01  6.936928E-02  5.000000E-01  5.657955E-01  7.024364E-02  0.000000E+00  2.273338E-02 -1.701443E-03 -1.466648E-17 -8.842735E-01  0.000000E+00
  5.392850E-01  7.083798E-02  5.000000E-01  5.447290E-01  7.172717E-02  0.000000E+00  2.288400E-02 -1.505939E-03 -1.165513E-17 -8.649533E-01  0.000000E+00
  5.182680E-01  7.212436E-02  5.000000E-01  5.234998E-01  7.302653E-02  0.000000E+00  2.302378E-02 -1.306180E-03 -9.353574E-18 -8.452897E-01  0.000000E+00
  4.971500E-01  7.322784E-02  5.000000E-01  5.021686E-01  7.414115E-02  0.000000E+00  2.315843E-02 -1.108621E-03 -8.143159E-18 -8.259145E-01  0.000000E+00
  4.759900E-01  7.414839E-02  5.000000E-01  4.807950E-01  7.507099E-02  0.000000E+00  2.330251E-02 -9.131711E-04 -7.893118E-18 -8.069337E-01  0.000000E+00
  2.733630E-06 -4.877898E-04  5.000000E-01  2.813636E-06 -3.186158E-04  0.000000E+00  4.643890E-04 -1.833862E-02 -1.478742E-18  1.097053E+00  0.000000E+00
  4.455870E-05 -1.433697E-03  5.000000E-01  4.506092E-05 -1.274071E-03  0.000000E+00  2.239738E-03 -2.183359E-02  2.537752E-17  1.067721E+00  0.000000E+00
  2.731490E-04 -2.974089E-03  5.000000E-01  2.759588E-04 -2.830013E-03  0.000000E+00  6.546250E-03 -2.480190E-02  3.779939E-17  9.472400E-01  0.000000E+00
  9.950900E-04 -4.938625E-03  5.000000E-01  1.005188E-03 -4.814381E-03  0.000000E+00  1.271277E-02 -2.520546E-02  3.748909E-17  7.377709E-01  0.000000E+00
  2.349870E-03 -7.023235E-03  5.000000E-01  2.373644E-03 -6.920034E-03  0.000000E+00  1.841641E-02 -2.405259E-02  3.545621E-17  5.283411E-01  0.000000E+00
  4.254460E-03 -9.160561E-03  5.000000E-01  4.297460E-03 -9.078936E-03  0.000000E+00  2.306438E-02 -2.277122E-02  2.370524E-17  3.560909E-01  0.000000E+00
  6.687140E-03 -1.129147E-02  5.000000E-01  6.754697E-03 -1.123136E-02  0.000000E+00  2.710074E-02 -2.129988E-02  3.026630E-18  1.922634E-01  0.000000E+00
  9.634000E-03 -1.337806E-02  5.000000E-01  9.731305E-03 -1.333900E-02  0.000000E+00  3.039609E-02 -1.929639E-02 -1.013977E-17  2.571486E-02  0.000000E+00
  1.310530E-02 -1.535221E-02  5.000000E-01  1.323765E-02 -1.533309E-02  0.000000E+00  3.264905E-02 -1.662617E-02 -4.925163E-18 -1.394271E-01  0.000000E+00
  1.710810E-02 -1.716190E-02  5.000000E-01  1.728085E-02 -1.716105E-02  0.000000E+00  3.392371E-02 -1.382835E-02  2.023677E-17 -2.806141E-01  0.000000E+00
  2.163760E-02 -1.880771E-02  5.000000E-01  2.185608E-02 -1.882347E-02  0.000000E+00  3.461230E-02 -1.138757E-02  5.310755E-17 -3.883762E-01  0.000000E+00
  2.669190E-02 -2.029939E-02  5.000000E-01  2.696140E-02 -2.033020E-02  0.000000E+00  3.486262E-02 -9.233190E-03  7.619823E-17 -4.751889E-01  0.000000E+00
  3.228310E-02 -2.161279E-02  5.000000E-01  3.260904E-02 -2.165686E-02  0.000000E+00  3.463529E-02 -7.242746E-03  8.599905E-17 -5.507615E-01  0.000000E+00
  3.842170E-02 -2.273596E-02  5.000000E-01  3.880961E-02 -2.279137E-02  0.000000E+00  3.401650E-02 -5.493884E-03  8.782024E-17 -6.140747E-01  0.000000E+00
  4.511710E-02 -2.366993E-02  5.000000E-01  4.557259E-02 -2.373478E-02  0.000000E+00  3.313710E-02 -4.032668E-03  8.346934E-17 -6.639036E-01  0.000000E+00
  5.237940E-02 -2.442037E-02  5.000000E-01  5.290821E-02 -2.449279E-02  0.000000E+00  3.212109E-02 -2.863206E-03  7.539801E-17 -6.998768E-01  0.000000E+00
  6.021800E-02 -2.500341E-02  5.000000E-01  6.082593E-02 -2.508171E-02  0.000000E+00  3.108817E-02 -1.976697E-03  6.618803E-17 -7.219686E-01  0.000000E+00
  6.864140E-02 -2.544483E-02  5.000000E-01  6.933437E-02 -2.552759E-02  0.000000E+00  3.008956E-02 -1.327890E-03  5.606512E-17 -7.318022E-01  0.000000E+00
  7.765990E-02 -2.576627E-02  5.000000E-01  7.844390E-02 -2.585228E-02  0.000000E+00  2.910950E-02 -8.651410E-04  4.561716E-17 -7.311841E-01  0.000000E+00
  8.728340E-02 -2.599353E-02  5.000000E-01  8.816455E-02 -2.608183E-02  0.000000E+00  2.809384E-02 -5.610153E-04  3.594339E-17 -7.204713E-01  0.000000E+00
  9.752070E-02 -2.615955E-02  5.000000E-01  9.850519E-02 -2.624952E-02  0.000000E+00  2.691056E-02 -3.888952E-04  2.873572E-17 -6.995811E-01  0.000000E+00
  1.083810E-01 -2.629708E-02  5.000000E-01  1.094751E-01 -2.638844E-02  0.000000E+00  2.539300E-02 -3.215790E-04  2.370893E-17 -6.678069E-01  0.000000E+00
  1.198710E-01 -2.644273E-02  5.000000E-01  1.210811E-01 -2.653556E-02  0.000000E+00  2.348751E-02 -3.366805E-04  1.808709E-17 -6.232570E-01  0.000000E+00
  1.319970E-01 -2.663722E-02  5.000000E-01  1.333295E-01 -2.673202E-02  0.000000E+00  2.139078E-02 -4.073280E-04  1.333765E-17 -5.640914E-01  0.000000E+00
  1.319970E-01 -2.663722E-02  5.000000E-01  1.333295E-01 -2.673202E-02  0.000000E+00  2.139078E-02 -4.073280E-04  1.333765E-17 -5.640914E-01  0.000000E+00
  1.447640E-01 -2.691874E-02  5.000000E-01  1.462254E-01 -2.701638E-02  0.000000E+00  1.956315E-02 -5.111021E-04  9.051170E-18 -4.908996E-01  0.000000E+00
  1.581750E-01 -2.732216E-02  5.000000E-01  1.597718E-01 -2.742387E-02  0.000000E+00  1.852144E-02 -6.393921E-04  5.902712E-18 -4.104029E-01  0.000000E+00
  1.722290E-01 -2.786782E-02  5.000000E-01  1.739676E-01 -2.797504E-02  0.000000E+00  1.852143E-02 -7.829393E-04  4.127212E-18 -3.376100E-01  0.000000E+00
  1.869240E-01 -2.854139E-02  5.000000E-01  1.888110E-01 -2.865541E-02  0.000000E+00  1.940378E-02 -8.968591E-04  2.121373E-18 -2.916996E-01  0.000000E+00
  2.022540E-01 -2.926728E-02  5.000000E-01  2.042957E-01 -2.938862E-02  0.000000E+00  2.069235E-02 -8.740685E-04  1.284329E-18 -2.867843E-01  0.000000E+00
  2.182110E-01 -2.987685E-02  5.000000E-01  2.204138E-01 -3.000435E-02  0.000000E+00  2.188555E-02 -6.525999E-04  1.214322E-18 -3.191821E-01  0.000000E+00
  2.347810E-01 -3.023853E-02  5.000000E-01  2.371511E-01 -3.036968E-02  0.000000E+00  2.267726E-02 -3.175709E-04  6.938706E-19 -3.668948E-01  0.000000E+00
  2.519470E-01 -3.034193E-02  5.000000E-01  2.544904E-01 -3.047412E-02  0.000000E+00  2.288127E-02  2.179990E-05  6.642581E-19 -4.085505E-01  0.000000E+00
  2.696890E-01 -3.019672E-02  5.000000E-01  2.724115E-01 -3.032745E-02  0.000000E+00  2.242146E-02  3.076921E-04  6.777200E-19 -4.326319E-01  0.000000E+00
  2.879810E-01 -2.983674E-02  5.000000E-01  2.908881E-01 -2.996383E-02  0.000000E+00  2.145804E-02  4.963036E-04  8.578044E-19 -4.337155E-01  0.000000E+00
  3.067920E-01 -2.932791E-02  5.000000E-01  3.098890E-01 -2.944987E-02  0.000000E+00  2.035808E-02  5.669427E-04  1.063460E-18 -4.119832E-01  0.000000E+00
  3.260870E-01 -2.876813E-02  5.000000E-01  3.293788E-01 -2.888444E-02  0.000000E+00  1.951043E-02  5.329280E-04  9.876644E-19 -3.743253E-01  0.000000E+00
  3.458260E-01 -2.826369E-02  5.000000E-01  3.493171E-01 -2.837491E-02  0.000000E+00  1.909024E-02  4.609509E-04  1.556317E-18 -3.352076E-01  0.000000E+00
  3.659650E-01 -2.781421E-02  5.000000E-01  3.696594E-01 -2.792088E-02  0.000000E+00  1.903618E-02  4.244158E-04  1.068562E-18 -3.087019E-01  0.000000E+00
  3.864540E-01 -2.736484E-02  5.000000E-01  3.903552E-01 -2.746698E-02  0.000000E+00  1.919109E-02  4.468631E-04 -5.246515E-19 -2.990120E-01  0.000000E+00
  4.072410E-01 -2.685606E-02  5.000000E-01  4.113520E-01 -2.695307E-02  0.000000E+00  1.935730E-02  5.272004E-04  5.716278E-20 -3.021034E-01  0.000000E+00
  4.282690E-01 -2.622715E-02  5.000000E-01  4.325923E-01 -2.631780E-02  0.000000E+00  1.932159E-02  6.580948E-04  1.089921E-18 -3.104856E-01  0.000000E+00
  4.494800E-01 -2.541546E-02  5.000000E-01  4.540174E-01 -2.549792E-02  0.000000E+00  1.894142E-02  8.104013E-04  1.127585E-18 -3.151456E-01  0.000000E+00
  4.708130E-01 -2.439905E-02  5.000000E-01  4.755658E-01 -2.447125E-02  0.000000E+00  1.822604E-02  9.368327E-04  8.301815E-19 -3.076557E-01  0.000000E+00
  4.922030E-01 -2.320975E-02  5.000000E-01  4.971717E-01 -2.326995E-02  0.000000E+00  1.731272E-02  1.015880E-03 -7.235100E-20 -2.847964E-01  0.000000E+00
  5.135860E-01 -2.188230E-02  5.000000E-01  5.187705E-01 -2.192910E-02  0.000000E+00  1.639087E-02  1.058647E-03  7.604009E-19 -2.496685E-01  0.000000E+00
  5.348990E-01 -2.044852E-02  5.000000E-01  5.402987E-01 -2.048084E-02  0.000000E+00  1.562573E-02  1.081637E-03  3.453546E-19 -2.088688E-01  0.000000E+00
  5.560760E-01 -1.894143E-02  5.000000E-01  5.616895E-01 -1.895854E-02  0.000000E+00  1.508108E-02  1.100515E-03  6.069875E-19 -1.700703E-01  0.000000E+00
  4.759900E-01  7.414839E-02  5.000000E-01  4.807950E-01  7.507099E-02  0.000000E+00  2.330251E-02 -9.131711E-04 -7.893118E-18 -8.069337E-01  0.000000E+00
  4.548480E-01  7.488574E-02  5.000000E-01  4.594396E-01  7.581579E-02  0.000000E+00  2.346267E-02 -7.194063E-04 -7.780390E-18 -7.882970E-01  0.000000E+00
  4.337860E-01  7.544259E-02  5.000000E-01  4.381650E-01  7.637826E-02  0.000000E+00  2.364066E-02 -5.235934E-04 -8.047610E-18 -7.695391E-01  0.000000E+00
  4.128620E-01  7.581688E-02  5.000000E-01  4.170298E-01  7.675633E-02  0.000000E+00  2.383855E-02 -3.130738E-04 -8.660655E-18 -7.494223E-01  0.000000E+00
  3.921340E-01  7.599191E-02  5.000000E-01  3.960925E-01  7.693312E-02  0.000000E+00  2.404161E-02 -7.605269E-05 -7.942899E-18 -7.266822E-01  0.000000E+00
  3.716590E-01  7.594985E-02  5.000000E-01  3.754108E-01  7.689064E-02  0.000000E+00  2.421655E-02  1.910003E-04 -6.478511E-18 -7.006532E-01  0.000000E+00
  3.514890E-01  7.567447E-02  5.000000E-01  3.550372E-01  7.661247E-02  0.000000E+00  2.433080E-02  4.867605E-04 -6.095225E-18 -6.712018E-01  0.000000E+00
  3.316730E-01  7.515359E-02  5.000000E-01  3.350212E-01  7.608634E-02  0.000000E+00  2.435789E-02  8.031054E-04 -5.501195E-18 -6.390117E-01  0.000000E+00
  3.122580E-01  7.438374E-02  5.000000E-01  3.154102E-01  7.530872E-02  0.000000E+00  2.427244E-02  1.116635E-03 -4.552554E-18 -6.061542E-01  0.000000E+00
  2.932850E-01  7.338869E-02  5.000000E-01  2.962457E-01  7.430362E-02  0.000000E+00  2.407126E-02  1.403495E-03 -3.862541E-18 -5.750171E-01  0.000000E+00
  2.747930E-01  7.220024E-02  5.000000E-01  2.775670E-01  7.310318E-02  0.000000E+00  2.378692E-02  1.658762E-03 -3.731644E-18 -5.467974E-01  0.000000E+00
  2.568150E-01  7.084681E-02  5.000000E-01  2.594075E-01  7.173608E-02  0.000000E+00  2.346185E-02  1.888389E-03 -4.007607E-18 -5.217907E-01  0.000000E+00
  2.393810E-01  6.935214E-02  5.000000E-01  2.417975E-01  7.022632E-02  0.000000E+00  2.313274E-02  2.101266E-03 -2.752064E-18 -5.001645E-01  0.000000E+00
  2.225160E-01  6.773528E-02  5.000000E-01  2.247623E-01  6.859315E-02  0.000000E+00  2.282735E-02  2.303945E-03 -1.446428E-18 -4.830658E-01  0.000000E+00
  2.062420E-01  6.601075E-02  5.000000E-01  2.083240E-01  6.685121E-02  0.000000E+00  2.254742E-02  2.468568E-03 -9.108538E-19 -4.752426E-01  0.000000E+00
  1.905750E-01  6.423511E-02  5.000000E-01  1.924988E-01  6.505764E-02  0.000000E+00  2.231206E-02  2.538646E-03 -9.778105E-20 -4.838561E-01  0.000000E+00
  1.755290E-01  6.251151E-02  5.000000E-01  1.773010E-01  6.331665E-02  0.000000E+00  2.226637E-02  2.533810E-03  1.017611E-20 -5.094291E-01  0.000000E+00
  1.611160E-01  6.088198E-02  5.000000E-01  1.627425E-01  6.167067E-02  0.000000E+00  2.258978E-02  2.535096E-03 -1.305728E-18 -5.449162E-01  0.000000E+00
  1.473410E-01  5.934879E-02  5.000000E-01  1.488284E-01  6.012199E-02  0.000000E+00  2.331729E-02  2.590554E-03 -1.080545E-18 -5.826715E-01  0.000000E+00
  1.342110E-01  5.789421E-02  5.000000E-01  1.355659E-01  5.865273E-02  0.000000E+00  2.433283E-02  2.715202E-03 -2.874226E-19 -6.172372E-01  0.000000E+00
  1.217280E-01  5.649248E-02  5.000000E-01  1.229569E-01  5.723686E-02  0.000000E+00  2.545950E-02  2.909177E-03  9.909959E-19 -6.460032E-01  0.000000E+00
  1.098910E-01  5.511775E-02  5.000000E-01  1.110004E-01  5.584824E-02  0.000000E+00  2.656602E-02  3.178397E-03  4.420754E-18 -6.680021E-01  0.000000E+00
  9.869950E-02  5.374099E-02  5.000000E-01  9.969589E-02  5.445759E-02  0.000000E+00  2.760403E-02  3.538576E-03  7.113031E-18 -6.828795E-01  0.000000E+00
  8.814970E-02  5.233555E-02  5.000000E-01  8.903960E-02  5.303796E-02  0.000000E+00  2.858900E-02  4.016039E-03  1.102185E-17 -6.901694E-01  0.000000E+00
  8.814970E-02  5.233555E-02  5.000000E-01  8.903960E-02  5.303796E-02  0.000000E+00  2.858900E-02  4.016039E-03  1.102185E-17 -6.901694E-01  0.000000E+00
  7.823720E-02  5.087350E-02  5.000000E-01  7.902703E-02  5.156115E-02  0.000000E+00  2.956218E-02  4.654080E-03  1.592452E-17 -6.885711E-01  0.000000E+00
  6.895800E-02  4.932313E-02  5.000000E-01  6.965416E-02  4.999513E-02  0.000000E+00  3.053548E-02  5.495178E-03  1.939133E-17 -6.765633E-01  0.000000E+00
  6.030560E-02  4.765787E-02  5.000000E-01  6.091442E-02  4.831306E-02  0.000000E+00  3.149306E-02  6.594436E-03  2.029459E-17 -6.516562E-01  0.000000E+00
  5.227560E-02  4.584489E-02  5.000000E-01  5.280336E-02  4.648178E-02  0.000000E+00  3.237546E-02  8.013958E-03  1.893381E-17 -6.103061E-01  0.000000E+00
  4.486350E-02  4.385294E-02  5.000000E-01  4.531643E-02  4.446972E-02  0.000000E+00  3.304041E-02  9.775766E-03  1.474496E-17 -5.494461E-01  0.000000E+00
  3.806240E-02  4.165950E-02  5.000000E-01  3.844668E-02  4.225414E-02  0.000000E+00  3.330080E-02  1.187773E-02  6.998041E-18 -4.651550E-01  0.000000E+00
  3.186880E-02  3.923969E-02  5.000000E-01  3.219056E-02  3.980990E-02  0.000000E+00  3.290965E-02  1.422693E-02 -1.137287E-18 -3.542019E-01  0.000000E+00
  2.627530E-02  3.658363E-02  5.000000E-01  2.654059E-02  3.712702E-02  0.000000E+00  3.160951E-02  1.659470E-02 -5.379268E-18 -2.158015E-01  0.000000E+00
  2.127350E-02  3.369355E-02  5.000000E-01  2.148830E-02  3.420778E-02  0.000000E+00  2.927359E-02  1.870180E-02 -7.035604E-18 -5.004522E-02  0.000000E+00
  1.685790E-02  3.057656E-02  5.000000E-01  1.702813E-02  3.105932E-02  0.000000E+00  2.595242E-02  2.018637E-02 -1.093430E-17  1.374037E-01  0.000000E+00
  1.301460E-02  2.726791E-02  5.000000E-01  1.314603E-02  2.771726E-02  0.000000E+00  2.190889E-02  2.075481E-02 -1.660041E-17  3.367952E-01  0.000000E+00
  9.730790E-03  2.381325E-02  5.000000E-01  9.829072E-03  2.422773E-02  0.000000E+00  1.754946E-02  2.033839E-02 -2.412267E-17  5.389198E-01  0.000000E+00
  6.996180E-03  2.026797E-02  5.000000E-01  7.066857E-03  2.064666E-02  0.000000E+00  1.328593E-02  1.892229E-02 -2.754544E-17  7.286683E-01  0.000000E+00
  4.781010E-03  1.672424E-02  5.000000E-01  4.829325E-03  1.706716E-02  0.000000E+00  9.433627E-03  1.660721E-02 -2.192206E-17  8.924451E-01  0.000000E+00
  3.054950E-03  1.327833E-02  5.000000E-01  3.085841E-03  1.358647E-02  0.000000E+00  6.149771E-03  1.361403E-02 -1.673380E-17  1.025742E+00  0.000000E+00
  1.789910E-03  1.002622E-02  5.000000E-01  1.808031E-03  1.030153E-02  0.000000E+00  3.519910E-03  1.007649E-02 -1.805617E-17  1.124060E+00  0.000000E+00
  9.331870E-04  7.077827E-03  5.000000E-01  9.426596E-04  7.323374E-03  0.000000E+00  1.602048E-03  6.078106E-03 -1.858649E-17  1.183808E+00  0.000000E+00
  4.085430E-04  4.542495E-03  5.000000E-01  4.127195E-04  4.762448E-03  0.000000E+00  3.741602E-04  1.707636E-03 -2.018994E-17  1.207915E+00  0.000000E+00
  1.354760E-04  2.508137E-03  5.000000E-01  1.368960E-04  2.707554E-03  0.000000E+00 -2.393671E-04 -2.999124E-03 -2.846736E-17  1.204118E+00  0.000000E+00
  2.683130E-05  1.027267E-03  5.000000E-01  2.715456E-05  1.211735E-03  0.000000E+00 -3.414939E-04 -8.037802E-03 -3.742208E-17  1.180776E+00  0.000000E+00
  1.320070E-06  1.287061E-04  5.000000E-01  1.385807E-06  3.041035E-04  0.000000E+00 -2.059241E-04 -1.293447E-02 -4.048941E-17  1.140540E+00  0.000000E+00
 -5.188750E-08 -1.723582E-04  5.000000E-01  0.000000E+00  0.000000E+00  0.000000E+00 -4.350864E-05 -1.604830E-02 -2.820316E-17  1.105684E+00  0.000000E+00