 Title = "ADflow Slice Data"
Variables =  "CoordinateX"  "CoordinateY"  "CoordinateZ"  "XoC"  "YoC"  "ZoC" "VelocityX" "VelocityY" "VelocityZ" "CoefPressure" "Mach" 
Zone T= "Slice_0001 None Relative Regular z = 0.10000000"
 Nodes =          180  Elements=          174  ZONETYPE=FELINESEG
 DATAPACKING=POINT
  9.985299E-02 -1.921105E-02  1.000000E-01  1.008613E-01 -1.940504E-02  0.000000E+00  1.758553E-02 -2.389399E-04  1.144327E-05  1.665515E-02  0.000000E+00
  1.142212E-01 -1.949386E-02  1.000000E-01  1.153746E-01 -1.969071E-02  0.000000E+00  1.790173E-02 -3.943316E-04  1.174282E-05  2.247843E-02  0.000000E+00
  1.303672E-01 -1.990649E-02  1.000000E-01  1.316836E-01 -2.010750E-02  0.000000E+00  1.794498E-02 -3.548894E-04  1.200437E-05 -2.326702E-03  0.000000E+00
  1.484273E-01 -2.017615E-02  1.000000E-01  1.499260E-01 -2.037988E-02  0.000000E+00  1.733862E-02 -3.025669E-05  1.224081E-05 -3.502413E-02  0.000000E+00
  1.685136E-01 -1.993414E-02  1.000000E-01  1.702152E-01 -2.013544E-02  0.000000E+00  1.631108E-02  3.368102E-04  1.251104E-05 -3.865307E-02  0.000000E+00
  1.907081E-01 -1.926225E-02  1.000000E-01  1.926338E-01 -1.945675E-02  0.000000E+00  1.541567E-02  4.766861E-04  1.283726E-05 -2.936021E-03  0.000000E+00
  2.150745E-01 -1.850625E-02  1.000000E-01  2.172463E-01 -1.869313E-02  0.000000E+00  1.487955E-02  4.263231E-04  1.315288E-05  3.670990E-02  0.000000E+00
  2.416317E-01 -1.783958E-02  1.000000E-01  2.440716E-01 -1.801972E-02  0.000000E+00  1.458729E-02  3.438083E-04  1.343254E-05  5.256321E-02  0.000000E+00
  2.703405E-01 -1.722540E-02  1.000000E-01  2.730703E-01 -1.739933E-02  0.000000E+00  1.438085E-02  3.073090E-04  1.372308E-05  5.043729E-02  0.000000E+00
  3.011017E-01 -1.657655E-02  1.000000E-01  3.041422E-01 -1.674393E-02  0.000000E+00  1.416641E-02  3.185909E-04  1.404815E-05  4.548167E-02  0.000000E+00
  3.337519E-01 -1.580347E-02  1.000000E-01  3.371221E-01 -1.596306E-02  0.000000E+00  1.391066E-02  3.493635E-04  1.438625E-05  4.521143E-02  0.000000E+00
  3.680632E-01 -1.490136E-02  1.000000E-01  3.717798E-01 -1.505183E-02  0.000000E+00  1.362100E-02  3.744913E-04  1.470950E-05  4.979694E-02  0.000000E+00
  4.037446E-01 -1.388963E-02  1.000000E-01  4.078216E-01 -1.402989E-02  0.000000E+00  1.331701E-02  3.884269E-04  1.500468E-05  5.618958E-02  0.000000E+00
  4.404498E-01 -1.280091E-02  1.000000E-01  4.448974E-01 -1.293017E-02  0.000000E+00  1.302481E-02  3.904330E-04  1.527681E-05  6.298983E-02  0.000000E+00
  4.777887E-01 -1.168066E-02  1.000000E-01  4.826133E-01 -1.179861E-02  0.000000E+00  1.276640E-02  3.807247E-04  1.553312E-05  6.983993E-02  0.000000E+00
  5.153430E-01 -1.057853E-02  1.000000E-01  5.205468E-01 -1.068535E-02  0.000000E+00  1.255074E-02  3.626752E-04  1.577388E-05  7.607117E-02  0.000000E+00
  5.526842E-01 -9.527738E-03  1.000000E-01  5.582651E-01 -9.623947E-03  0.000000E+00  1.237540E-02  3.411795E-04  1.599592E-05  8.106842E-02  0.000000E+00
  5.893931E-01 -8.547210E-03  1.000000E-01  5.953447E-01 -8.633518E-03  0.000000E+00  1.223424E-02  3.190299E-04  1.619745E-05  8.495778E-02  0.000000E+00
  6.250786E-01 -7.649258E-03  1.000000E-01  6.313905E-01 -7.726499E-03  0.000000E+00  1.211992E-02  2.979839E-04  1.637635E-05  8.800558E-02  0.000000E+00
  6.593932E-01 -6.834695E-03  1.000000E-01  6.660517E-01 -6.903711E-03  0.000000E+00  1.202650E-02  2.786635E-04  1.653089E-05  9.049577E-02  0.000000E+00
  6.920459E-01 -6.105499E-03  1.000000E-01  6.990341E-01 -6.167151E-03  0.000000E+00  1.195034E-02  2.613114E-04  1.666027E-05  9.257341E-02  0.000000E+00
  7.228087E-01 -5.455324E-03  1.000000E-01  7.301075E-01 -5.510410E-03  0.000000E+00  1.189098E-02  2.453826E-04  1.676568E-05  9.437829E-02  0.000000E+00
  7.515201E-01 -4.884705E-03  1.000000E-01  7.591088E-01 -4.934030E-03  0.000000E+00  1.184922E-02  2.303237E-04  1.684918E-05  9.594258E-02  0.000000E+00
  7.780828E-01 -4.387113E-03  1.000000E-01  7.859397E-01 -4.431413E-03  0.000000E+00  1.182301E-02  2.167731E-04  1.691187E-05  9.711500E-02  0.000000E+00
  8.024589E-01 -3.956327E-03  1.000000E-01  8.105620E-01 -3.996278E-03  0.000000E+00  1.180546E-02  2.064399E-04  1.695390E-05  9.788888E-02  0.000000E+00
  8.246622E-01 -3.578394E-03  1.000000E-01  8.329895E-01 -3.614528E-03  0.000000E+00  1.178321E-02  2.027435E-04  1.697341E-05  9.825438E-02  0.000000E+00
  8.447493E-01 -3.234385E-03  1.000000E-01  8.532794E-01 -3.267045E-03  0.000000E+00  1.174335E-02  2.061164E-04  1.697055E-05  9.879477E-02  0.000000E+00
  8.628104E-01 -2.914128E-03  1.000000E-01  8.715229E-01 -2.943554E-03  0.000000E+00  1.167845E-02  2.141828E-04  1.694683E-05  1.001818E-01  0.000000E+00
  8.789603E-01 -2.612214E-03  1.000000E-01  8.878359E-01 -2.638591E-03  0.000000E+00  1.158606E-02  2.250069E-04  1.690344E-05  1.025215E-01  0.000000E+00
  8.933300E-01 -2.326456E-03  1.000000E-01  9.023506E-01 -2.349948E-03  0.000000E+00  1.146920E-02  2.364191E-04  1.684373E-05  1.057118E-01  0.000000E+00
  9.060595E-01 -2.057869E-03  1.000000E-01  9.152087E-01 -2.078649E-03  0.000000E+00  1.133769E-02  2.448500E-04  1.677394E-05  1.097786E-01  0.000000E+00
  9.172923E-01 -1.812493E-03  1.000000E-01  9.265550E-01 -1.830795E-03  0.000000E+00  1.120263E-02  2.487951E-04  1.669903E-05  1.143746E-01  0.000000E+00
  9.271705E-01 -1.592194E-03  1.000000E-01  9.365329E-01 -1.608272E-03  0.000000E+00  1.107012E-02  2.496795E-04  1.662187E-05  1.189307E-01  0.000000E+00
  9.358311E-01 -1.396924E-03  1.000000E-01  9.452809E-01 -1.411030E-03  0.000000E+00  1.094246E-02  2.486344E-04  1.654570E-05  1.233143E-01  0.000000E+00
  9.434041E-01 -1.225445E-03  1.000000E-01  9.529304E-01 -1.237819E-03  0.000000E+00  1.082031E-02  2.463447E-04  1.647260E-05  1.275335E-01  0.000000E+00
  9.500108E-01 -1.075897E-03  1.000000E-01  9.596039E-01 -1.086761E-03  0.000000E+00  1.070363E-02  2.432614E-04  1.640336E-05  1.315682E-01  0.000000E+00
  9.557629E-01 -9.461173E-04  1.000000E-01  9.654140E-01 -9.556710E-04  0.000000E+00  1.059208E-02  2.396601E-04  1.633822E-05  1.353945E-01  0.000000E+00
  9.607620E-01 -8.339586E-04  1.000000E-01  9.704636E-01 -8.423797E-04  0.000000E+00  1.048523E-02  2.357023E-04  1.627729E-05  1.390119E-01  0.000000E+00
  9.651001E-01 -7.373601E-04  1.000000E-01  9.748455E-01 -7.448059E-04  0.000000E+00  1.038240E-02  2.316442E-04  1.622048E-05  1.424126E-01  0.000000E+00
  9.688596E-01 -6.542827E-04  1.000000E-01  9.786430E-01 -6.608895E-04  0.000000E+00  1.028249E-02  2.277160E-04  1.616762E-05  1.455989E-01  0.000000E+00
  9.721139E-01 -5.828874E-04  1.000000E-01  9.819301E-01 -5.887733E-04  0.000000E+00  1.018448E-02  2.239496E-04  1.611885E-05  1.486013E-01  0.000000E+00
  9.749281E-01 -5.215850E-04  1.000000E-01  9.847727E-01 -5.268518E-04  0.000000E+00  1.008745E-02  2.203854E-04  1.607465E-05  1.514360E-01  0.000000E+00
  9.773596E-01 -4.689396E-04  1.000000E-01  9.872288E-01 -4.736749E-04  0.000000E+00  9.990190E-03  2.170018E-04  1.603536E-05  1.541094E-01  0.000000E+00
  9.794588E-01 -4.237348E-04  1.000000E-01  9.893492E-01 -4.280135E-04  0.000000E+00  9.891737E-03  2.135227E-04  1.599911E-05  1.566596E-01  0.000000E+00
  9.812701E-01 -3.850157E-04  1.000000E-01  9.911788E-01 -3.889035E-04  0.000000E+00  9.791532E-03  2.098845E-04  1.595798E-05  1.590998E-01  0.000000E+00
  9.828320E-01 -3.518647E-04  1.000000E-01  9.927565E-01 -3.554177E-04  0.000000E+00  9.688928E-03  2.064381E-04  1.589971E-05  1.614316E-01  0.000000E+00
  9.841783E-01 -3.234359E-04  1.000000E-01  9.941163E-01 -3.267019E-04  0.000000E+00  9.582184E-03  2.033005E-04  1.582429E-05  1.637115E-01  0.000000E+00
  9.853382E-01 -2.990214E-04  1.000000E-01  9.952879E-01 -3.020409E-04  0.000000E+00  9.457199E-03  2.004206E-04  1.577070E-05  1.660273E-01  0.000000E+00
  9.863371E-01 -2.780344E-04  1.000000E-01  9.962970E-01 -2.808419E-04  0.000000E+00  9.252775E-03  1.957221E-04  1.580732E-05  1.683637E-01  0.000000E+00
  9.871972E-01 -2.600206E-04  1.000000E-01  9.971657E-01 -2.626462E-04  0.000000E+00  8.844364E-03  1.839113E-04  1.592682E-05  1.711074E-01  0.000000E+00
  9.879375E-01 -2.445932E-04  1.000000E-01  9.979135E-01 -2.470630E-04  0.000000E+00  8.095332E-03  1.749699E-04  1.587230E-05  1.750647E-01  0.000000E+00
  9.885747E-01 -2.313772E-04  1.000000E-01  9.985571E-01 -2.337136E-04  0.000000E+00  6.780562E-03  1.705689E-04  1.504915E-05  1.757289E-01  0.000000E+00
  9.891228E-01 -2.200354E-04  1.000000E-01  9.991108E-01 -2.222572E-04  0.000000E+00  5.408447E-03 -4.424720E-05  1.282580E-05  1.769527E-01  0.000000E+00
  9.895944E-01 -2.102889E-04  1.000000E-01  9.995871E-01 -2.124124E-04  0.000000E+00  8.322336E-03  5.166832E-04  9.451628E-06  2.387099E-01  0.000000E+00
  9.900000E-01 -2.019053E-04  1.000000E-01  9.999968E-01 -2.039441E-04  0.000000E+00  6.560930E-03 -3.083582E-04  3.088516E-06  9.531891E-02  0.000000E+00
  9.900000E-01  1.145697E-03  1.000000E-01  9.999968E-01  1.157266E-03  0.000000E+00  2.381986E-05 -1.520070E-05 -2.148783E-05  1.036183E-01  0.000000E+00
  9.900000E-01  8.087962E-04  1.000000E-01  9.999968E-01  8.169632E-04  0.000000E+00  7.745512E-05 -5.422913E-03 -2.016329E-05  1.099993E-01  0.000000E+00
  9.900000E-01  4.718957E-04  1.000000E-01  9.999968E-01  4.766608E-04  0.000000E+00 -2.805697E-04 -1.186489E-02 -1.518250E-05  1.180821E-01  0.000000E+00
  9.900000E-01  1.349952E-04  1.000000E-01  9.999968E-01  1.363584E-04  0.000000E+00  3.369374E-04 -8.506423E-03 -6.626911E-06  6.540987E-03  0.000000E+00
  9.900000E-01 -2.019053E-04  1.000000E-01  9.999968E-01 -2.039441E-04  0.000000E+00  6.560930E-03 -3.083582E-04  3.088516E-06  9.531891E-02  0.000000E+00
  9.900000E-01  2.493299E-03  1.000000E-01  9.999968E-01  2.518475E-03  0.000000E+00  2.868251E-03 -5.377178E-04 -1.189798E-05  9.226943E-02  0.000000E+00
  9.900000E-01  2.156398E-03  1.000000E-01  9.999968E-01  2.178173E-03  0.000000E+00  1.704469E-04  4.606574E-03 -1.306844E-05  4.955132E-02  0.000000E+00
  9.900000E-01  1.819498E-03  1.000000E-01  9.999968E-01  1.837871E-03  0.000000E+00 -1.553541E-04  7.246197E-03 -1.618929E-05  1.068450E-01  0.000000E+00
  9.900000E-01  1.482597E-03  1.000000E-01  9.999968E-01  1.497568E-03  0.000000E+00  3.979755E-05  4.081485E-03 -1.957704E-05  1.048315E-01  0.000000E+00
  4.892727E-03 -7.101897E-03  1.000000E-01  4.942132E-03 -7.173611E-03  0.000000E+00  2.914754E-02 -2.154921E-02  9.162698E-06  4.763351E-01  0.000000E+00
  5.227298E-03 -7.331351E-03  1.000000E-01  5.280082E-03 -7.405382E-03  0.000000E+00  3.161679E-02 -2.217848E-02  9.592122E-06  4.105561E-01  0.000000E+00
  5.612257E-03 -7.603882E-03  1.000000E-01  5.668928E-03 -7.680665E-03  0.000000E+00  3.136189E-02 -2.148740E-02  9.405711E-06  4.151191E-01  0.000000E+00
  6.067448E-03 -7.909380E-03  1.000000E-01  6.128716E-03 -7.989247E-03  0.000000E+00  3.052920E-02 -1.926353E-02  8.791321E-06  3.690571E-01  0.000000E+00
  6.616495E-03 -8.232685E-03  1.000000E-01  6.683307E-03 -8.315817E-03  0.000000E+00  2.760203E-02 -1.580055E-02  8.249059E-06  3.244300E-01  0.000000E+00
  7.265226E-03 -8.589646E-03  1.000000E-01  7.338589E-03 -8.676382E-03  0.000000E+00  2.567328E-02 -1.417607E-02  7.940714E-06  3.215118E-01  0.000000E+00
  8.017171E-03 -9.007468E-03  1.000000E-01  8.098127E-03 -9.098424E-03  0.000000E+00  2.643364E-02 -1.430353E-02  7.766308E-06  3.026511E-01  0.000000E+00
  8.898762E-03 -9.477277E-03  1.000000E-01  8.988620E-03 -9.572977E-03  0.000000E+00  2.702924E-02 -1.345043E-02  7.662136E-06  2.280762E-01  0.000000E+00
  9.952568E-03 -9.962090E-03  1.000000E-01  1.005307E-02 -1.006269E-02  0.000000E+00  2.650276E-02 -1.207608E-02  7.652622E-06  1.787967E-01  0.000000E+00
  1.118066E-02 -1.051407E-02  1.000000E-01  1.129356E-02 -1.062024E-02  0.000000E+00  2.650342E-02 -1.134370E-02  7.686159E-06  1.548766E-01  0.000000E+00
  1.262440E-02 -1.110858E-02  1.000000E-01  1.275187E-02 -1.122075E-02  0.000000E+00  2.644351E-02 -1.022055E-02  7.700005E-06  9.082512E-02  0.000000E+00
  1.432910E-02 -1.172141E-02  1.000000E-01  1.447380E-02 -1.183977E-02  0.000000E+00  2.581497E-02 -8.935175E-03  7.774024E-06  4.520921E-02  0.000000E+00
  1.632042E-02 -1.238548E-02  1.000000E-01  1.648522E-02 -1.251054E-02  0.000000E+00  2.477951E-02 -7.514265E-03  7.902198E-06  4.770405E-03  0.000000E+00
  1.866623E-02 -1.302644E-02  1.000000E-01  1.885471E-02 -1.315798E-02  0.000000E+00  2.331638E-02 -5.972858E-03  8.099297E-06 -3.143162E-02  0.000000E+00
  2.140396E-02 -1.367447E-02  1.000000E-01  2.162009E-02 -1.381255E-02  0.000000E+00  2.219579E-02 -4.895649E-03  8.388950E-06 -3.256366E-02  0.000000E+00
  2.459186E-02 -1.433043E-02  1.000000E-01  2.484018E-02 -1.447514E-02  0.000000E+00  2.168586E-02 -4.132166E-03  8.701014E-06 -3.423359E-02  0.000000E+00
  2.829506E-02 -1.498134E-02  1.000000E-01  2.858078E-02 -1.513262E-02  0.000000E+00  2.171864E-02 -3.652050E-03  9.024781E-06 -3.402266E-02  0.000000E+00
  3.257840E-02 -1.567141E-02  1.000000E-01  3.290737E-02 -1.582966E-02  0.000000E+00  2.215857E-02 -3.371544E-03  9.338378E-06 -3.598857E-02  0.000000E+00
  3.752642E-02 -1.638806E-02  1.000000E-01  3.790536E-02 -1.655354E-02  0.000000E+00  2.255166E-02 -3.031287E-03  9.619275E-06 -5.381225E-02  0.000000E+00
  4.323472E-02 -1.710106E-02  1.000000E-01  4.367129E-02 -1.727375E-02  0.000000E+00  2.253749E-02 -2.547153E-03  9.888746E-06 -7.603446E-02  0.000000E+00
  4.980806E-02 -1.776996E-02  1.000000E-01  5.031101E-02 -1.794940E-02  0.000000E+00  2.195897E-02 -1.932536E-03  1.015016E-05 -9.241113E-02  0.000000E+00
  5.736095E-02 -1.833266E-02  1.000000E-01  5.794017E-02 -1.851778E-02  0.000000E+00  2.086167E-02 -1.279233E-03  1.039742E-05 -9.552466E-02  0.000000E+00
  6.601249E-02 -1.874720E-02  1.000000E-01  6.667907E-02 -1.893651E-02  0.000000E+00  1.951760E-02 -7.162133E-04  1.063395E-05 -8.042731E-02  0.000000E+00
  7.588854E-02 -1.899817E-02  1.000000E-01  7.665485E-02 -1.919001E-02  0.000000E+00  1.830354E-02 -3.181467E-04  1.087116E-05 -5.165081E-02  0.000000E+00
  8.712238E-02 -1.910448E-02  1.000000E-01  8.800212E-02 -1.929739E-02  0.000000E+00  1.760555E-02 -1.538339E-04  1.113795E-05 -1.539154E-02  0.000000E+00
  9.985299E-02 -1.921105E-02  1.000000E-01  1.008613E-01 -1.940504E-02  0.000000E+00  1.758553E-02 -2.389399E-04  1.144327E-05  1.665515E-02  0.000000E+00
  4.892727E-03  9.221158E-03  1.000000E-01  4.942132E-03  9.314271E-03  0.000000E+00  2.489699E-02  2.802380E-02  2.399017E-06  3.713191E-01  0.000000E+00
  3.174117E-03  7.188621E-03  1.000000E-01  3.206168E-03  7.261210E-03  0.000000E+00  1.847991E-02  2.390432E-02  2.641939E-06  4.952845E-01  0.000000E+00
  1.670170E-03  4.994703E-03  1.000000E-01  1.687035E-03  5.045139E-03  0.000000E+00  1.158915E-02  1.965984E-02  2.953699E-06  6.542004E-01  0.000000E+00
  5.295844E-04  2.596565E-03  1.000000E-01  5.349320E-04  2.622785E-03  0.000000E+00  5.101332E-03  1.350525E-02  3.575554E-06  8.901685E-01  0.000000E+00
  0.000000E+00  0.000000E+00  1.000000E-01  0.000000E+00  0.000000E+00  0.000000E+00  1.302503E-03  3.560540E-03  4.452334E-06  1.067596E+00  0.000000E+00
  4.666874E-04 -2.174935E-03  1.000000E-01  4.713999E-04 -2.196897E-03  0.000000E+00  3.990203E-03 -7.501210E-03  5.518570E-06  1.019284E+00  0.000000E+00
  1.602273E-03 -4.091652E-03  1.000000E-01  1.618452E-03 -4.132969E-03  0.000000E+00  1.211420E-02 -1.521369E-02  6.765198E-06  8.224094E-01  0.000000E+00
  3.137433E-03 -5.714829E-03  1.000000E-01  3.169114E-03 -5.772536E-03  0.000000E+00  2.149658E-02 -1.923998E-02  8.123079E-06  6.347703E-01  0.000000E+00
  4.892727E-03 -7.101897E-03  1.000000E-01  4.942132E-03 -7.173611E-03  0.000000E+00  2.914754E-02 -2.154921E-02  9.162698E-06  4.763351E-01  0.000000E+00
  8.933167E-01  1.755324E-02  1.000000E-01  9.023372E-01  1.773049E-02  0.000000E+00  7.836159E-03 -1.043958E-03 -2.049606E-05 -2.061509E-02  0.000000E+00
  8.789008E-01  1.953345E-02  1.000000E-01  8.877758E-01  1.973070E-02  0.000000E+00  7.802910E-03 -1.110026E-03 -2.061667E-05 -3.513698E-02  0.000000E+00
  8.627210E-01  2.191108E-02  1.000000E-01  8.714325E-01  2.213234E-02  0.000000E+00  8.004598E-03 -1.204752E-03 -2.092076E-05 -5.836127E-02  0.000000E+00
  8.446441E-01  2.468655E-02  1.000000E-01  8.531732E-01  2.493583E-02  0.000000E+00  8.504780E-03 -1.318016E-03 -2.139110E-05 -9.268463E-02  0.000000E+00
  8.245461E-01  2.781402E-02  1.000000E-01  8.328722E-01  2.809489E-02  0.000000E+00  9.292976E-03 -1.427042E-03 -2.193697E-05 -1.375199E-01  0.000000E+00
  8.023168E-01  3.118023E-02  1.000000E-01  8.104184E-01  3.149508E-02  0.000000E+00  1.026506E-02 -1.480951E-03 -2.247918E-05 -1.812564E-01  0.000000E+00
  7.778653E-01  3.455217E-02  1.000000E-01  7.857200E-01  3.490107E-02  0.000000E+00  1.119848E-02 -1.451970E-03 -2.292034E-05 -2.119579E-01  0.000000E+00
  7.511656E-01  3.780954E-02  1.000000E-01  7.587507E-01  3.819133E-02  0.000000E+00  1.186159E-02 -1.375728E-03 -2.315058E-05 -2.290599E-01  0.000000E+00
  7.222660E-01  4.099127E-02  1.000000E-01  7.295593E-01  4.140519E-02  0.000000E+00  1.218339E-02 -1.308793E-03 -2.315347E-05 -2.399714E-01  0.000000E+00
  6.912818E-01  4.422552E-02  1.000000E-01  6.982622E-01  4.467210E-02  0.000000E+00  1.228409E-02 -1.288340E-03 -2.299193E-05 -2.571746E-01  0.000000E+00
  6.583951E-01  4.767704E-02  1.000000E-01  6.650435E-01  4.815847E-02  0.000000E+00  1.240972E-02 -1.303466E-03 -2.279791E-05 -2.870439E-01  0.000000E+00
  6.238331E-01  5.130132E-02  1.000000E-01  6.301325E-01  5.181935E-02  0.000000E+00  1.277692E-02 -1.320912E-03 -2.267206E-05 -3.294093E-01  0.000000E+00
  5.878771E-01  5.495346E-02  1.000000E-01  5.938134E-01  5.550837E-02  0.000000E+00  1.346946E-02 -1.319688E-03 -2.259228E-05 -3.839804E-01  0.000000E+00
  5.508620E-01  5.844105E-02  1.000000E-01  5.564245E-01  5.903118E-02  0.000000E+00  1.446656E-02 -1.268279E-03 -2.250262E-05 -4.445330E-01  0.000000E+00
  5.131660E-01  6.150861E-02  1.000000E-01  5.183478E-01  6.212971E-02  0.000000E+00  1.565032E-02 -1.130642E-03 -2.235213E-05 -4.993883E-01  0.000000E+00
  4.752053E-01  6.392409E-02  1.000000E-01  4.800038E-01  6.456958E-02  0.000000E+00  1.681565E-02 -9.032743E-04 -2.207339E-05 -5.397592E-01  0.000000E+00
  4.374218E-01  6.558949E-02  1.000000E-01  4.418388E-01  6.625180E-02  0.000000E+00  1.775298E-02 -6.331501E-04 -2.158997E-05 -5.664222E-01  0.000000E+00
  4.002572E-01  6.659755E-02  1.000000E-01  4.042989E-01  6.727004E-02  0.000000E+00  1.839056E-02 -3.704917E-04 -2.090620E-05 -5.848333E-01  0.000000E+00
  3.641201E-01  6.706268E-02  1.000000E-01  3.677969E-01  6.773986E-02  0.000000E+00  1.882329E-02 -1.337475E-04 -2.011211E-05 -6.014871E-01  0.000000E+00
  3.293696E-01  6.709218E-02  1.000000E-01  3.326955E-01  6.776966E-02  0.000000E+00  1.922380E-02  7.518925E-05 -1.927050E-05 -6.273845E-01  0.000000E+00
  2.963049E-01  6.678096E-02  1.000000E-01  2.992969E-01  6.745530E-02  0.000000E+00  1.979765E-02  2.831766E-04 -1.838378E-05 -6.732035E-01  0.000000E+00
  2.651597E-01  6.616302E-02  1.000000E-01  2.678372E-01  6.683112E-02  0.000000E+00  2.076229E-02  5.814440E-04 -1.745582E-05 -7.365080E-01  0.000000E+00
  2.361064E-01  6.510275E-02  1.000000E-01  2.384905E-01  6.576014E-02  0.000000E+00  2.218709E-02  1.063379E-03 -1.645250E-05 -8.045890E-01  0.000000E+00
  2.092576E-01  6.350916E-02  1.000000E-01  2.113707E-01  6.415047E-02  0.000000E+00  2.391685E-02  1.773714E-03 -1.531238E-05 -8.603424E-01  0.000000E+00
  1.846735E-01  6.132508E-02  1.000000E-01  1.865383E-01  6.194433E-02  0.000000E+00  2.561117E-02  2.672911E-03 -1.400757E-05 -8.875421E-01  0.000000E+00
  1.623524E-01  5.865201E-02  1.000000E-01  1.639918E-01  5.924426E-02  0.000000E+00  2.693090E-02  3.688054E-03 -1.264793E-05 -8.693999E-01  0.000000E+00
  1.422521E-01  5.555306E-02  1.000000E-01  1.436885E-01  5.611402E-02  0.000000E+00  2.755678E-02  4.626243E-03 -1.137782E-05 -8.068329E-01  0.000000E+00
  1.242624E-01  5.226795E-02  1.000000E-01  1.255171E-01  5.279574E-02  0.000000E+00  2.732601E-02  5.210712E-03 -1.023816E-05 -7.318487E-01  0.000000E+00
  1.082290E-01  4.905247E-02  1.000000E-01  1.093219E-01  4.954779E-02  0.000000E+00  2.651266E-02  5.373399E-03 -9.217463E-06 -6.861712E-01  0.000000E+00
  9.397980E-02  4.610710E-02  1.000000E-01  9.492879E-02  4.657268E-02  0.000000E+00  2.577514E-02  5.392083E-03 -8.289086E-06 -6.911705E-01  0.000000E+00
  8.137320E-02  4.341975E-02  1.000000E-01  8.219489E-02  4.385819E-02  0.000000E+00  2.581826E-02  5.715170E-03 -7.445053E-06 -7.316416E-01  0.000000E+00
  7.028901E-02  4.086699E-02  1.000000E-01  7.099878E-02  4.127966E-02  0.000000E+00  2.687231E-02  6.608469E-03 -6.653528E-06 -7.748843E-01  0.000000E+00
  6.061222E-02  3.833604E-02  1.000000E-01  6.122427E-02  3.872315E-02  0.000000E+00  2.851800E-02  8.012117E-03 -5.863932E-06 -7.967600E-01  0.000000E+00
  5.221309E-02  3.581492E-02  1.000000E-01  5.274032E-02  3.617658E-02  0.000000E+00  3.006061E-02  9.674226E-03 -5.061978E-06 -7.880684E-01  0.000000E+00
  4.496182E-02  3.332289E-02  1.000000E-01  4.541583E-02  3.365938E-02  0.000000E+00  3.098798E-02  1.131122E-02 -4.279893E-06 -7.522608E-01  0.000000E+00
  3.872393E-02  3.090719E-02  1.000000E-01  3.911495E-02  3.121929E-02  0.000000E+00  3.118483E-02  1.275384E-02 -3.556792E-06 -6.999324E-01  0.000000E+00
  3.337816E-02  2.859605E-02  1.000000E-01  3.371521E-02  2.888481E-02  0.000000E+00  3.087085E-02  1.398576E-02 -2.904767E-06 -6.428256E-01  0.000000E+00
  2.880750E-02  2.642121E-02  1.000000E-01  2.909839E-02  2.668800E-02  0.000000E+00  3.040389E-02  1.518343E-02 -2.324101E-06 -5.802158E-01  0.000000E+00
  2.491531E-02  2.438450E-02  1.000000E-01  2.516690E-02  2.463073E-02  0.000000E+00  2.991524E-02  1.658199E-02 -1.865039E-06 -4.884126E-01  0.000000E+00
  2.163366E-02  2.245540E-02  1.000000E-01  2.185211E-02  2.268215E-02  0.000000E+00  2.909471E-02  1.760584E-02 -1.451960E-06 -3.969824E-01  0.000000E+00
  1.884036E-02  2.070920E-02  1.000000E-01  1.903060E-02  2.091832E-02  0.000000E+00  2.811509E-02  1.832059E-02 -1.063898E-06 -3.131815E-01  0.000000E+00
  1.648240E-02  1.910887E-02  1.000000E-01  1.664884E-02  1.930183E-02  0.000000E+00  2.707828E-02  1.904407E-02 -7.603152E-07 -2.124377E-01  0.000000E+00
  1.449514E-02  1.765566E-02  1.000000E-01  1.464151E-02  1.783394E-02  0.000000E+00  2.578119E-02  1.923091E-02 -4.802857E-07 -1.245387E-01  0.000000E+00
  1.280552E-02  1.636564E-02  1.000000E-01  1.293483E-02  1.653089E-02  0.000000E+00  2.451183E-02  1.910359E-02 -2.229482E-07 -5.307127E-02  0.000000E+00
  1.137010E-02  1.522433E-02  1.000000E-01  1.148492E-02  1.537807E-02  0.000000E+00  2.332085E-02  1.901830E-02 -2.286405E-08  2.176644E-02  0.000000E+00
  1.015973E-02  1.420620E-02  1.000000E-01  1.026232E-02  1.434965E-02  0.000000E+00  2.243047E-02  1.885144E-02  1.742948E-07  6.456649E-02  0.000000E+00
  9.116365E-03  1.332880E-02  1.000000E-01  9.208421E-03  1.346339E-02  0.000000E+00  2.220161E-02  1.935438E-02  3.543141E-07  1.026212E-01  0.000000E+00
  8.243072E-03  1.254351E-02  1.000000E-01  8.326309E-03  1.267017E-02  0.000000E+00  2.169153E-02  1.990295E-02  4.962023E-07  1.709156E-01  0.000000E+00
  7.506674E-03  1.184996E-02  1.000000E-01  7.582475E-03  1.196962E-02  0.000000E+00  2.075036E-02  1.940147E-02  6.686771E-07  2.082340E-01  0.000000E+00
  6.869528E-03  1.125614E-02  1.000000E-01  6.938895E-03  1.136980E-02  0.000000E+00  2.111757E-02  1.986714E-02  8.456680E-07  2.135459E-01  0.000000E+00
  6.325617E-03  1.074021E-02  1.000000E-01  6.389492E-03  1.084866E-02  0.000000E+00  2.319454E-02  2.277676E-02  1.004029E-06  2.309190E-01  0.000000E+00
  5.871725E-03  1.028176E-02  1.000000E-01  5.931016E-03  1.038559E-02  0.000000E+00  2.515937E-02  2.628720E-02  1.217515E-06  2.744227E-01  0.000000E+00
  5.495097E-03  9.873985E-03  1.000000E-01  5.550585E-03  9.973690E-03  0.000000E+00  2.619226E-02  2.842716E-02  1.560390E-06  3.000571E-01  0.000000E+00
  5.173096E-03  9.521336E-03  1.000000E-01  5.225333E-03  9.617481E-03  0.000000E+00  2.720177E-02  2.960841E-02  2.004868E-06  3.030067E-01  0.000000E+00
  4.892727E-03  9.221158E-03  1.000000E-01  4.942132E-03  9.314271E-03  0.000000E+00  2.489699E-02  2.802380E-02  2.399017E-06  3.713191E-01  0.000000E+00
  9.900000E-01  2.493299E-03  1.000000E-01  9.999968E-01  2.518475E-03  0.000000E+00  2.868251E-03 -5.377178E-04 -1.189798E-05  9.226943E-02  0.000000E+00
  9.896000E-01  2.586735E-03  1.000000E-01  9.995928E-01  2.612855E-03  0.000000E+00  3.245653E-03 -9.503563E-04 -1.236984E-05  1.602217E-01  0.000000E+00
  9.891350E-01  2.695384E-03  1.000000E-01  9.991231E-01  2.722601E-03  0.000000E+00  1.631584E-03 -2.868652E-04 -1.340359E-05  1.254350E-01  0.000000E+00
  9.885944E-01  2.821312E-03  1.000000E-01  9.985770E-01  2.849801E-03  0.000000E+00  2.139740E-03 -5.131907E-04 -1.486095E-05  1.244108E-01  0.000000E+00
  9.879658E-01  2.966621E-03  1.000000E-01  9.979420E-01  2.996578E-03  0.000000E+00  2.687854E-03 -6.212647E-04 -1.605924E-05  1.236067E-01  0.000000E+00
  9.872348E-01  3.133294E-03  1.000000E-01  9.972037E-01  3.164933E-03  0.000000E+00  3.021033E-03 -6.821908E-04 -1.676494E-05  1.201077E-01  0.000000E+00
  9.863850E-01  3.324010E-03  1.000000E-01  9.963453E-01  3.357576E-03  0.000000E+00  3.242618E-03 -7.247006E-04 -1.708358E-05  1.168055E-01  0.000000E+00
  9.853974E-01  3.543330E-03  1.000000E-01  9.953478E-01  3.579110E-03  0.000000E+00  3.398249E-03 -7.529367E-04 -1.721097E-05  1.129269E-01  0.000000E+00
  9.842504E-01  3.796427E-03  1.000000E-01  9.941892E-01  3.834763E-03  0.000000E+00  3.556975E-03 -7.813998E-04 -1.730453E-05  1.082344E-01  0.000000E+00
  9.829185E-01  4.087298E-03  1.000000E-01  9.928438E-01  4.128571E-03  0.000000E+00  3.762842E-03 -8.152836E-04 -1.743525E-05  1.027385E-01  0.000000E+00
  9.813720E-01  4.419369E-03  1.000000E-01  9.912817E-01  4.463995E-03  0.000000E+00  4.020215E-03 -8.522559E-04 -1.761363E-05  9.665887E-02  0.000000E+00
  9.795767E-01  4.795182E-03  1.000000E-01  9.894683E-01  4.843603E-03  0.000000E+00  4.305039E-03 -8.889078E-04 -1.782775E-05  9.028728E-02  0.000000E+00
  9.774935E-01  5.219058E-03  1.000000E-01  9.873641E-01  5.271759E-03  0.000000E+00  4.603568E-03 -9.268276E-04 -1.806085E-05  8.295861E-02  0.000000E+00
  9.750785E-01  5.699462E-03  1.000000E-01  9.849247E-01  5.757014E-03  0.000000E+00  4.930344E-03 -9.682521E-04 -1.830943E-05  7.444708E-02  0.000000E+00
  9.722807E-01  6.241750E-03  1.000000E-01  9.820986E-01  6.304778E-03  0.000000E+00  5.296347E-03 -1.010313E-03 -1.858133E-05  6.525635E-02  0.000000E+00
  9.690416E-01  6.849368E-03  1.000000E-01  9.788268E-01  6.918531E-03  0.000000E+00  5.700530E-03 -1.050544E-03 -1.887699E-05  5.519931E-02  0.000000E+00
  9.652952E-01  7.526878E-03  1.000000E-01  9.750426E-01  7.602883E-03  0.000000E+00  6.139573E-03 -1.086520E-03 -1.919001E-05  4.435637E-02  0.000000E+00
  9.609665E-01  8.276371E-03  1.000000E-01  9.706701E-01  8.359944E-03  0.000000E+00  6.594160E-03 -1.112322E-03 -1.950962E-05  3.368353E-02  0.000000E+00
  9.559709E-01  9.097050E-03  1.000000E-01  9.656241E-01  9.188910E-03  0.000000E+00  7.029069E-03 -1.125198E-03 -1.981321E-05  2.348149E-02  0.000000E+00
  9.502152E-01  9.993721E-03  1.000000E-01  9.598103E-01  1.009464E-02  0.000000E+00  7.415743E-03 -1.126366E-03 -2.007576E-05  1.362024E-02  0.000000E+00
  9.435966E-01  1.097272E-02  1.000000E-01  9.531249E-01  1.108352E-02  0.000000E+00  7.734038E-03 -1.114961E-03 -2.028298E-05  4.733916E-03  0.000000E+00
  9.360018E-01  1.203821E-02  1.000000E-01  9.454534E-01  1.215977E-02  0.000000E+00  7.961473E-03 -1.091432E-03 -2.042251E-05 -2.759636E-03  0.000000E+00
  9.273086E-01  1.320025E-02  1.000000E-01  9.366724E-01  1.333355E-02  0.000000E+00  8.078461E-03 -1.060772E-03 -2.048742E-05 -8.615287E-03  0.000000E+00
  9.173870E-01  1.447798E-02  1.000000E-01  9.266506E-01  1.462417E-02  0.000000E+00  8.076577E-03 -1.031707E-03 -2.049351E-05 -1.218406E-02  0.000000E+00
  9.061019E-01  1.590763E-02  1.000000E-01  9.152516E-01  1.606826E-02  0.000000E+00  7.972342E-03 -1.019216E-03 -2.048120E-05 -1.433024E-02  0.000000E+00
  8.933167E-01  1.755324E-02  1.000000E-01  9.023372E-01  1.773049E-02  0.000000E+00  7.836159E-03 -1.043958E-03 -2.049606E-05 -2.061509E-02  0.000000E+00
    1    2
    2    3
    3    4
    4    5
    5    6
    6    7
    7    8
    8    9
    9   10
   10   11
   11   12
   12   13
   13   14
   14   15
   15   16
   16   17
   17   18
   18   19
   19   20
   20   21
   21   22
   22   23
   23   24
   24   25
   25   26
   26   27
   27   28
   28   29
   29   30
   30   31
   31   32
   32   33
   33   34
   34   35
   35   36
   36   37
   37   38
   38   39
   39   40
   40   41
   41   42
   42   43
   43   44
   44   45
   45   46
   46   47
   47   48
   48   49
   49   50
   50   51
   51   52
   52   53
   53   54
   54   55
   56   57
   57   58
   58   59
   59   60
   61   62
   62   63
   63   64
   64   56
   65   66
   66   67
   67   68
   68   69
   69   70
   70   71
   71   72
   72   73
   73   74
   74   75
   75   76
   76   77
   77   78
   78   79
   79   80
   80   81
   81   82
   82   83
   83   84
   84   85
   85   86
   86   87
   87   88
   88   89
   89   90
   91   92
   92   93
   93   94
   94   95
   95   96
   96   97
   97   98
   98   99
  100  101
  101  102
  102  103
  103  104
  104  105
  105  106
  106  107
  107  108
  108  109
  109  110
  110  111
  111  112
  112  113
  113  114
  114  115
  115  116
  116  117
  117  118
  118  119
  119  120
  120  121
  121  122
  122  123
  123  124
  124  125
  125  126
  126  127
  127  128
  128  129
  129  130
  130  131
  131  132
  132  133
  133  134
  134  135
  135  136
  136  137
  137  138
  138  139
  139  140
  140  141
  141  142
  142  143
  143  144
  144  145
  145  146
  146  147
  147  148
  148  149
  149  150
  150  151
  151  152
  152  153
  153  154
  155  156
  156  157
  157  158
  158  159
  159  160
  160  161
  161  162
  162  163
  163  164
  164  165
  165  166
  166  167
  167  168