 Title = "ADflow Slice Data"
Variables =  "CoordinateX"  "CoordinateY"  "CoordinateZ"  "XoC"  "YoC"  "ZoC" "VelocityX" "VelocityY" "VelocityZ" "CoefPressure" "Mach" 
Zone T= "Slice_0001 None Relative Regular z = 0.10000000"
 Nodes =          180  Elements=          174  ZONETYPE=FELINESEG
 DATAPACKING=POINT
  1.126591E-01 -3.523783E-02  1.000000E-01  1.137964E-01 -3.559355E-02  0.000000E+00  2.253812E-02 -2.225607E-03  1.187767E-05 -9.695552E-02  0.000000E+00
  1.268364E-01 -3.657247E-02  1.000000E-01  1.281168E-01 -3.694166E-02  0.000000E+00  2.227111E-02 -1.972118E-03  1.186409E-05 -1.068539E-01  0.000000E+00
  1.427846E-01 -3.790648E-02  1.000000E-01  1.442260E-01 -3.828914E-02  0.000000E+00  2.200092E-02 -1.736967E-03  1.185008E-05 -1.169643E-01  0.000000E+00
  1.606322E-01 -3.924333E-02  1.000000E-01  1.622538E-01 -3.963949E-02  0.000000E+00  2.171695E-02 -1.521080E-03  1.183518E-05 -1.261616E-01  0.000000E+00
  1.804944E-01 -4.055203E-02  1.000000E-01  1.823165E-01 -4.096140E-02  0.000000E+00  2.138098E-02 -1.308261E-03  1.180691E-05 -1.352166E-01  0.000000E+00
  2.024611E-01 -4.180554E-02  1.000000E-01  2.045049E-01 -4.222756E-02  0.000000E+00  2.099814E-02 -1.108266E-03  1.176745E-05 -1.426788E-01  0.000000E+00
  2.265883E-01 -4.298855E-02  1.000000E-01  2.288756E-01 -4.342251E-02  0.000000E+00  2.058814E-02 -9.258068E-04  1.171892E-05 -1.481008E-01  0.000000E+00
  2.528895E-01 -4.407730E-02  1.000000E-01  2.554424E-01 -4.452225E-02  0.000000E+00  2.019345E-02 -7.681698E-04  1.166516E-05 -1.516031E-01  0.000000E+00
  2.813261E-01 -4.507578E-02  1.000000E-01  2.841661E-01 -4.553082E-02  0.000000E+00  1.987156E-02 -6.476564E-04  1.160926E-05 -1.537259E-01  0.000000E+00
  3.118003E-01 -4.600608E-02  1.000000E-01  3.149479E-01 -4.647050E-02  0.000000E+00  1.964138E-02 -5.584386E-04  1.153995E-05 -1.568835E-01  0.000000E+00
  3.441512E-01 -4.687433E-02  1.000000E-01  3.476254E-01 -4.734752E-02  0.000000E+00  1.947714E-02 -4.807517E-04  1.143953E-05 -1.635933E-01  0.000000E+00
  3.781536E-01 -4.765639E-02  1.000000E-01  3.819710E-01 -4.813747E-02  0.000000E+00  1.934912E-02 -4.022298E-04  1.130138E-05 -1.740013E-01  0.000000E+00
  4.135189E-01 -4.832748E-02  1.000000E-01  4.176933E-01 -4.881534E-02  0.000000E+00  1.925181E-02 -3.237698E-04  1.113179E-05 -1.864836E-01  0.000000E+00
  4.499029E-01 -4.887421E-02  1.000000E-01  4.544446E-01 -4.936758E-02  0.000000E+00  1.920390E-02 -2.496797E-04  1.093976E-05 -2.000579E-01  0.000000E+00
  4.869174E-01 -4.929383E-02  1.000000E-01  4.918327E-01 -4.979144E-02  0.000000E+00  1.924910E-02 -1.833781E-04  1.073290E-05 -2.152064E-01  0.000000E+00
  5.241460E-01 -4.959540E-02  1.000000E-01  5.294371E-01 -5.009606E-02  0.000000E+00  1.944707E-02 -1.227299E-04  1.051492E-05 -2.338958E-01  0.000000E+00
  5.611629E-01 -4.977816E-02  1.000000E-01  5.668278E-01 -5.028066E-02  0.000000E+00  1.986000E-02 -6.124965E-05  1.028211E-05 -2.587344E-01  0.000000E+00
  5.975522E-01 -4.983971E-02  1.000000E-01  6.035844E-01 -5.034284E-02  0.000000E+00  2.051859E-02  1.616068E-05  1.001241E-05 -2.924257E-01  0.000000E+00
  6.329256E-01 -4.974529E-02  1.000000E-01  6.393149E-01 -5.024746E-02  0.000000E+00  2.136790E-02  1.463464E-04  9.652983E-06 -3.375278E-01  0.000000E+00
  6.669372E-01 -4.939744E-02  1.000000E-01  6.736699E-01 -4.989610E-02  0.000000E+00  2.225719E-02  3.703885E-04  9.129475E-06 -3.936585E-01  0.000000E+00
  6.992942E-01 -4.867744E-02  1.000000E-01  7.063535E-01 -4.916883E-02  0.000000E+00  2.298579E-02  6.867634E-04  8.375083E-06 -4.537552E-01  0.000000E+00
  7.297647E-01 -4.755964E-02  1.000000E-01  7.371315E-01 -4.803974E-02  0.000000E+00  2.324201E-02  1.075412E-03  7.354051E-06 -5.083525E-01  0.000000E+00
  7.581780E-01 -4.598704E-02  1.000000E-01  7.658317E-01 -4.645127E-02  0.000000E+00  2.274169E-02  1.475515E-03  6.120000E-06 -5.445729E-01  0.000000E+00
  7.844318E-01 -4.402921E-02  1.000000E-01  7.923505E-01 -4.447368E-02  0.000000E+00  2.139826E-02  1.808432E-03  4.849761E-06 -5.489346E-01  0.000000E+00
  8.084820E-01 -4.174008E-02  1.000000E-01  8.166435E-01 -4.216144E-02  0.000000E+00  1.935419E-02  2.045630E-03  3.764934E-06 -5.167117E-01  0.000000E+00
  8.303365E-01 -3.916817E-02  1.000000E-01  8.387186E-01 -3.956357E-02  0.000000E+00  1.702467E-02  2.165696E-03  2.995260E-06 -4.512262E-01  0.000000E+00
  8.500576E-01 -3.644558E-02  1.000000E-01  8.586387E-01 -3.681350E-02  0.000000E+00  1.476696E-02  2.178062E-03  2.501678E-06 -3.680662E-01  0.000000E+00
  8.677395E-01 -3.365732E-02  1.000000E-01  8.764991E-01 -3.399709E-02  0.000000E+00  1.267345E-02  2.111937E-03  2.148720E-06 -2.870967E-01  0.000000E+00
  8.835027E-01 -3.087715E-02  1.000000E-01  8.924215E-01 -3.118885E-02  0.000000E+00  1.070451E-02  1.976423E-03  1.830591E-06 -2.169870E-01  0.000000E+00
  8.974843E-01 -2.816402E-02  1.000000E-01  9.065442E-01 -2.844833E-02  0.000000E+00  8.808053E-03  1.777777E-03  1.520278E-06 -1.561797E-01  0.000000E+00
  9.098285E-01 -2.555362E-02  1.000000E-01  9.190130E-01 -2.581158E-02  0.000000E+00  7.011124E-03  1.527853E-03  1.237000E-06 -9.968249E-02  0.000000E+00
  9.206880E-01 -2.309747E-02  1.000000E-01  9.299822E-01 -2.333064E-02  0.000000E+00  5.380981E-03  1.249588E-03  1.000415E-06 -4.673462E-02  0.000000E+00
  9.302097E-01 -2.081565E-02  1.000000E-01  9.396000E-01 -2.102578E-02  0.000000E+00  3.953541E-03  9.685088E-04  8.140948E-07 -3.642802E-04  0.000000E+00
  9.385342E-01 -1.871939E-02  1.000000E-01  9.480086E-01 -1.890836E-02  0.000000E+00  2.743896E-03  7.033353E-04  6.736283E-07  3.822612E-02  0.000000E+00
  9.457943E-01 -1.681200E-02  1.000000E-01  9.553420E-01 -1.698171E-02  0.000000E+00  1.756664E-03  4.679764E-04  5.733623E-07  6.943228E-02  0.000000E+00
  9.521126E-01 -1.509032E-02  1.000000E-01  9.617240E-01 -1.524265E-02  0.000000E+00  9.830584E-04  2.707391E-04  5.055643E-07  9.421740E-02  0.000000E+00
  9.576015E-01 -1.354790E-02  1.000000E-01  9.672683E-01 -1.368466E-02  0.000000E+00  3.988521E-04  1.128041E-04  4.602362E-07  1.133650E-01  0.000000E+00
  9.623613E-01 -1.217037E-02  1.000000E-01  9.720762E-01 -1.229323E-02  0.000000E+00 -2.991658E-05 -9.586438E-06  4.276327E-07  1.278322E-01  0.000000E+00
  9.664835E-01 -1.094704E-02  1.000000E-01  9.762400E-01 -1.105755E-02  0.000000E+00 -3.355741E-04 -1.009684E-04  4.004613E-07  1.387922E-01  0.000000E+00
  9.700502E-01 -9.867665E-03  1.000000E-01  9.798427E-01 -9.967278E-03  0.000000E+00 -5.460635E-04 -1.667984E-04  3.741313E-07  1.469880E-01  0.000000E+00
  9.731333E-01 -8.919254E-03  1.000000E-01  9.829569E-01 -9.009292E-03  0.000000E+00 -6.878101E-04 -2.132934E-04  3.470746E-07  1.530318E-01  0.000000E+00
  9.757960E-01 -8.088463E-03  1.000000E-01  9.856465E-01 -8.170114E-03  0.000000E+00 -7.825288E-04 -2.455950E-04  3.206200E-07  1.575642E-01  0.000000E+00
  9.780945E-01 -7.363587E-03  1.000000E-01  9.879682E-01 -7.437921E-03  0.000000E+00 -8.447291E-04 -2.678284E-04  2.973647E-07  1.610220E-01  0.000000E+00
  9.800770E-01 -6.731738E-03  1.000000E-01  9.899707E-01 -6.799693E-03  0.000000E+00 -8.846740E-04 -2.837740E-04  2.787949E-07  1.636621E-01  0.000000E+00
  9.817855E-01 -6.180337E-03  1.000000E-01  9.916965E-01 -6.242727E-03  0.000000E+00 -9.095676E-04 -2.950229E-04  2.629204E-07  1.657391E-01  0.000000E+00
  9.832574E-01 -5.700575E-03  1.000000E-01  9.931832E-01 -5.758122E-03  0.000000E+00 -9.220951E-04 -3.014320E-04  2.414194E-07  1.674290E-01  0.000000E+00
  9.845253E-01 -5.284715E-03  1.000000E-01  9.944639E-01 -5.338063E-03  0.000000E+00 -9.217280E-04 -3.028298E-04  1.981451E-07  1.688131E-01  0.000000E+00
  9.856173E-01 -4.925176E-03  1.000000E-01  9.955669E-01 -4.974895E-03  0.000000E+00 -9.056800E-04 -2.985417E-04  1.109905E-07  1.699659E-01  0.000000E+00
  9.865575E-01 -4.614741E-03  1.000000E-01  9.965166E-01 -4.661326E-03  0.000000E+00 -8.677475E-04 -2.871326E-04 -4.276448E-08  1.709441E-01  0.000000E+00
  9.873666E-01 -4.346286E-03  1.000000E-01  9.973339E-01 -4.390161E-03  0.000000E+00 -7.986978E-04 -2.657441E-04 -2.782761E-07  1.717835E-01  0.000000E+00
  9.880626E-01 -4.113824E-03  1.000000E-01  9.980369E-01 -4.155353E-03  0.000000E+00 -6.879270E-04 -2.308627E-04 -5.964681E-07  1.725042E-01  0.000000E+00
  9.886612E-01 -3.912838E-03  1.000000E-01  9.986416E-01 -3.952337E-03  0.000000E+00 -5.246843E-04 -1.761172E-04 -9.837317E-07  1.732281E-01  0.000000E+00
  9.891761E-01 -3.739462E-03  1.000000E-01  9.991617E-01 -3.777211E-03  0.000000E+00 -3.335211E-04 -1.117224E-04 -1.421434E-06  1.734812E-01  0.000000E+00
  9.896190E-01 -3.590162E-03  1.000000E-01  9.996091E-01 -3.626404E-03  0.000000E+00 -1.850978E-04 -6.376153E-05 -1.891535E-06  1.732750E-01  0.000000E+00
  9.900000E-01 -3.461760E-03  1.000000E-01  9.999939E-01 -3.496705E-03  0.000000E+00 -6.501052E-05 -1.019742E-04 -2.374361E-06  1.737786E-01  0.000000E+00
  9.900000E-01  7.729299E-10  1.000000E-01  9.999939E-01  7.807325E-10  0.000000E+00 -9.677491E-07 -1.541873E-04 -4.273049E-06  1.758507E-01  0.000000E+00
  9.900000E-01 -8.654393E-04  1.000000E-01  9.999939E-01 -8.741758E-04  0.000000E+00  1.602827E-06 -1.621804E-04 -3.771054E-06  1.756059E-01  0.000000E+00
  9.900000E-01 -1.730879E-03  1.000000E-01  9.999939E-01 -1.748352E-03  0.000000E+00 -9.546305E-07 -1.704458E-04 -3.287057E-06  1.758983E-01  0.000000E+00
  9.900000E-01 -2.596319E-03  1.000000E-01  9.999939E-01 -2.622529E-03  0.000000E+00 -1.730634E-06 -1.686636E-04 -2.834409E-06  1.753356E-01  0.000000E+00
  9.900000E-01 -3.461760E-03  1.000000E-01  9.999939E-01 -3.496705E-03  0.000000E+00 -6.501052E-05 -1.019742E-04 -2.374361E-06  1.737786E-01  0.000000E+00
  9.900000E-01  3.461761E-03  1.000000E-01  9.999939E-01  3.496707E-03  0.000000E+00 -7.540513E-05  1.119072E-04 -6.371687E-06  1.752644E-01  0.000000E+00
  9.900000E-01  2.596321E-03  1.000000E-01  9.999939E-01  2.622530E-03  0.000000E+00 -8.040097E-06 -1.010139E-05 -5.854863E-06  1.785307E-01  0.000000E+00
  9.900000E-01  1.730881E-03  1.000000E-01  9.999939E-01  1.748354E-03  0.000000E+00  9.015162E-06 -1.411791E-04 -5.301158E-06  1.753573E-01  0.000000E+00
  9.900000E-01  8.654408E-04  1.000000E-01  9.999939E-01  8.741773E-04  0.000000E+00 -1.729595E-06 -1.445846E-04 -4.779018E-06  1.755912E-01  0.000000E+00
  1.870790E-02 -1.783262E-02  1.000000E-01  1.889676E-02 -1.801263E-02  0.000000E+00  4.035856E-02 -1.853187E-02  1.690878E-05  2.415563E-01  0.000000E+00
  1.907426E-02 -1.799798E-02  1.000000E-01  1.926681E-02 -1.817967E-02  0.000000E+00  4.866747E-02 -2.112075E-02  1.765876E-05  1.414451E-01  0.000000E+00
  1.950557E-02 -1.817767E-02  1.000000E-01  1.970248E-02 -1.836117E-02  0.000000E+00  3.953610E-02 -1.597064E-02  1.604251E-05  1.163294E-01  0.000000E+00
  2.001274E-02 -1.837212E-02  1.000000E-01  2.021477E-02 -1.855758E-02  0.000000E+00  2.713296E-02 -9.983455E-03  1.382386E-05  1.433305E-01  0.000000E+00
  2.060777E-02 -1.858314E-02  1.000000E-01  2.081581E-02 -1.877073E-02  0.000000E+00  2.005198E-02 -6.944440E-03  1.201139E-05  1.617461E-01  0.000000E+00
  2.130286E-02 -1.881785E-02  1.000000E-01  2.151791E-02 -1.900781E-02  0.000000E+00  1.730545E-02 -5.852808E-03  1.110346E-05  1.786493E-01  0.000000E+00
  2.211012E-02 -1.909127E-02  1.000000E-01  2.233332E-02 -1.928399E-02  0.000000E+00  1.755495E-02 -5.996496E-03  1.086156E-05  1.939871E-01  0.000000E+00
  2.304571E-02 -1.941467E-02  1.000000E-01  2.327835E-02 -1.961066E-02  0.000000E+00  1.911228E-02 -6.568708E-03  1.085509E-05  1.941881E-01  0.000000E+00
  2.413242E-02 -1.978901E-02  1.000000E-01  2.437603E-02 -1.998877E-02  0.000000E+00  2.007085E-02 -6.627370E-03  1.086309E-05  1.739180E-01  0.000000E+00
  2.540402E-02 -2.019225E-02  1.000000E-01  2.566047E-02 -2.039609E-02  0.000000E+00  1.994155E-02 -6.177477E-03  1.092919E-05  1.551712E-01  0.000000E+00
  2.688661E-02 -2.063676E-02  1.000000E-01  2.715803E-02 -2.084509E-02  0.000000E+00  2.000393E-02 -6.040164E-03  1.113272E-05  1.604864E-01  0.000000E+00
  2.860320E-02 -2.116112E-02  1.000000E-01  2.889195E-02 -2.137474E-02  0.000000E+00  2.073778E-02 -6.157703E-03  1.130941E-05  1.590192E-01  0.000000E+00
  3.060021E-02 -2.174362E-02  1.000000E-01  3.090912E-02 -2.196312E-02  0.000000E+00  2.142334E-02 -6.093652E-03  1.139358E-05  1.366183E-01  0.000000E+00
  3.292255E-02 -2.238591E-02  1.000000E-01  3.325490E-02 -2.261190E-02  0.000000E+00  2.202905E-02 -6.036626E-03  1.151372E-05  1.201538E-01  0.000000E+00
  3.561315E-02 -2.311924E-02  1.000000E-01  3.597266E-02 -2.335262E-02  0.000000E+00  2.262986E-02 -5.939288E-03  1.162071E-05  1.011243E-01  0.000000E+00
  3.873890E-02 -2.391285E-02  1.000000E-01  3.912996E-02 -2.415424E-02  0.000000E+00  2.316326E-02 -5.765093E-03  1.169772E-05  7.662744E-02  0.000000E+00
  4.235795E-02 -2.479698E-02  1.000000E-01  4.278554E-02 -2.504731E-02  0.000000E+00  2.368093E-02 -5.588920E-03  1.177586E-05  5.358904E-02  0.000000E+00
  4.654812E-02 -2.575824E-02  1.000000E-01  4.701801E-02 -2.601827E-02  0.000000E+00  2.402284E-02 -5.271039E-03  1.181361E-05  2.432878E-02  0.000000E+00
  5.139610E-02 -2.677740E-02  1.000000E-01  5.191493E-02 -2.704771E-02  0.000000E+00  2.422413E-02 -4.906895E-03  1.185063E-05 -2.132247E-03  0.000000E+00
  5.699011E-02 -2.787207E-02  1.000000E-01  5.756541E-02 -2.815344E-02  0.000000E+00  2.432069E-02 -4.536166E-03  1.188487E-05 -2.441668E-02  0.000000E+00
  6.343528E-02 -2.902337E-02  1.000000E-01  6.407564E-02 -2.931635E-02  0.000000E+00  2.419919E-02 -4.084037E-03  1.188345E-05 -4.740293E-02  0.000000E+00
  7.084616E-02 -3.020725E-02  1.000000E-01  7.156135E-02 -3.051219E-02  0.000000E+00  2.388278E-02 -3.602875E-03  1.187028E-05 -6.619335E-02  0.000000E+00
  7.934293E-02 -3.141868E-02  1.000000E-01  8.014388E-02 -3.173585E-02  0.000000E+00  2.349836E-02 -3.169809E-03  1.186943E-05 -7.739453E-02  0.000000E+00
  8.905295E-02 -3.266177E-02  1.000000E-01  8.995193E-02 -3.299148E-02  0.000000E+00  2.312252E-02 -2.796295E-03  1.187358E-05 -8.439651E-02  0.000000E+00
  1.001122E-01 -3.392969E-02  1.000000E-01  1.011229E-01 -3.427221E-02  0.000000E+00  2.280261E-02 -2.486781E-03  1.187796E-05 -9.015056E-02  0.000000E+00
  1.126591E-01 -3.523783E-02  1.000000E-01  1.137964E-01 -3.559355E-02  0.000000E+00  2.253812E-02 -2.225607E-03  1.187767E-05 -9.695552E-02  0.000000E+00
  1.870790E-02  1.783261E-02  1.000000E-01  1.889676E-02  1.801263E-02  0.000000E+00  7.788269E-02  3.556501E-02  1.585962E-05 -6.126072E-01  0.000000E+00
  1.261578E-02  1.490491E-02  1.000000E-01  1.274313E-02  1.505538E-02  0.000000E+00  3.839287E-02  2.111944E-02  1.185746E-05 -4.086867E-01  0.000000E+00
  7.054679E-03  1.106880E-02  1.000000E-01  7.125895E-03  1.118053E-02  0.000000E+00  1.929988E-02  1.562952E-02  8.646006E-06 -1.050313E-01  0.000000E+00
  2.346791E-03  6.238325E-03  1.000000E-01  2.370481E-03  6.301300E-03  0.000000E+00  8.234741E-03  1.167629E-02  8.154966E-06  4.611383E-01  0.000000E+00
  0.000000E+00  0.000000E+00  1.000000E-01  0.000000E+00  0.000000E+00  0.000000E+00  1.722352E-03  5.841219E-03  9.000792E-06  1.043768E+00  0.000000E+00
  2.346800E-03 -6.238321E-03  1.000000E-01  2.370490E-03 -6.301296E-03  0.000000E+00  2.062333E-03 -1.570551E-03  9.221330E-06  1.032491E+00  0.000000E+00
  7.054682E-03 -1.106880E-02  1.000000E-01  7.125897E-03 -1.118053E-02  0.000000E+00  9.670654E-03 -7.565002E-03  1.024200E-05  6.645685E-01  0.000000E+00
  1.261578E-02 -1.490492E-02  1.000000E-01  1.274313E-02 -1.505538E-02  0.000000E+00  2.268423E-02 -1.245530E-02  1.352672E-05  4.056528E-01  0.000000E+00
  1.870790E-02 -1.783262E-02  1.000000E-01  1.889676E-02 -1.801263E-02  0.000000E+00  4.035856E-02 -1.853187E-02  1.690878E-05  2.415563E-01  0.000000E+00
  8.974843E-01  2.816402E-02  1.000000E-01  9.065442E-01  2.844833E-02  0.000000E+00  4.011747E-03 -8.064762E-04 -1.484708E-05 -3.353739E-03  0.000000E+00
  8.835027E-01  3.087715E-02  1.000000E-01  8.924215E-01  3.118885E-02  0.000000E+00  5.811771E-03 -1.068967E-03 -1.627675E-05 -5.914099E-02  0.000000E+00
  8.677395E-01  3.365732E-02  1.000000E-01  8.764991E-01  3.399709E-02  0.000000E+00  7.829998E-03 -1.299593E-03 -1.763548E-05 -1.222219E-01  0.000000E+00
  8.500576E-01  3.644558E-02  1.000000E-01  8.586387E-01  3.681350E-02  0.000000E+00  9.995916E-03 -1.470004E-03 -1.889042E-05 -1.913499E-01  0.000000E+00
  8.303365E-01  3.916817E-02  1.000000E-01  8.387186E-01  3.956357E-02  0.000000E+00  1.221543E-02 -1.552415E-03 -1.999416E-05 -2.642210E-01  0.000000E+00
  8.084820E-01  4.174007E-02  1.000000E-01  8.166435E-01  4.216143E-02  0.000000E+00  1.437970E-02 -1.520190E-03 -2.094489E-05 -3.337828E-01  0.000000E+00
  7.844318E-01  4.402921E-02  1.000000E-01  7.923505E-01  4.447368E-02  0.000000E+00  1.633287E-02 -1.378638E-03 -2.175237E-05 -3.920591E-01  0.000000E+00
  7.581780E-01  4.598703E-02  1.000000E-01  7.658317E-01  4.645127E-02  0.000000E+00  1.791035E-02 -1.156085E-03 -2.243991E-05 -4.310952E-01  0.000000E+00
  7.297647E-01  4.755964E-02  1.000000E-01  7.371315E-01  4.803974E-02  0.000000E+00  1.898794E-02 -8.706511E-04 -2.306943E-05 -4.434034E-01  0.000000E+00
  6.992942E-01  4.867744E-02  1.000000E-01  7.063535E-01  4.916883E-02  0.000000E+00  1.945543E-02 -5.748840E-04 -2.360363E-05 -4.317433E-01  0.000000E+00
  6.669372E-01  4.939744E-02  1.000000E-01  6.736699E-01  4.989610E-02  0.000000E+00  1.936170E-02 -3.182488E-04 -2.401300E-05 -4.052336E-01  0.000000E+00
  6.329256E-01  4.974529E-02  1.000000E-01  6.393149E-01  5.024746E-02  0.000000E+00  1.890198E-02 -1.278072E-04 -2.428346E-05 -3.756726E-01  0.000000E+00
  5.975522E-01  4.983971E-02  1.000000E-01  6.035844E-01  5.034284E-02  0.000000E+00  1.829172E-02 -1.423030E-05 -2.438657E-05 -3.546624E-01  0.000000E+00
  5.611629E-01  4.977816E-02  1.000000E-01  5.668278E-01  5.028066E-02  0.000000E+00  1.771050E-02  5.440736E-05 -2.444569E-05 -3.452268E-01  0.000000E+00
  5.241460E-01  4.959540E-02  1.000000E-01  5.294371E-01  5.009605E-02  0.000000E+00  1.718447E-02  1.099608E-04 -2.485093E-05 -3.414175E-01  0.000000E+00
  4.869174E-01  4.929383E-02  1.000000E-01  4.918327E-01  4.979144E-02  0.000000E+00  1.658354E-02  1.635042E-04 -2.637993E-05 -3.302268E-01  0.000000E+00
  4.499029E-01  4.887421E-02  1.000000E-01  4.544446E-01  4.936758E-02  0.000000E+00  1.573374E-02  2.125585E-04 -2.995028E-05 -2.998389E-01  0.000000E+00
  4.135189E-01  4.832748E-02  1.000000E-01  4.176933E-01  4.881534E-02  0.000000E+00  1.456521E-02  2.467291E-04 -3.570817E-05 -2.583942E-01  0.000000E+00
  3.781536E-01  4.765639E-02  1.000000E-01  3.819710E-01  4.813747E-02  0.000000E+00  1.321683E-02  2.620603E-04 -4.209103E-05 -2.483666E-01  0.000000E+00
  3.441512E-01  4.687433E-02  1.000000E-01  3.476254E-01  4.734752E-02  0.000000E+00  1.215147E-02  2.817921E-04 -4.574205E-05 -3.248029E-01  0.000000E+00
  3.118003E-01  4.600608E-02  1.000000E-01  3.149479E-01  4.647050E-02  0.000000E+00  1.228100E-02  3.501335E-04 -4.266257E-05 -4.938920E-01  0.000000E+00
  2.813261E-01  4.507578E-02  1.000000E-01  2.841661E-01  4.553081E-02  0.000000E+00  1.459535E-02  5.036604E-04 -3.108687E-05 -6.841970E-01  0.000000E+00
  2.528895E-01  4.407730E-02  1.000000E-01  2.554424E-01  4.452225E-02  0.000000E+00  1.893451E-02  7.510399E-04 -1.471314E-05 -8.118141E-01  0.000000E+00
  2.265883E-01  4.298855E-02  1.000000E-01  2.288756E-01  4.342251E-02  0.000000E+00  2.340003E-02  1.062135E-03 -1.140970E-06 -8.580765E-01  0.000000E+00
  2.024611E-01  4.180554E-02  1.000000E-01  2.045049E-01  4.222756E-02  0.000000E+00  2.602348E-02  1.367939E-03  5.035341E-06 -8.601942E-01  0.000000E+00
  1.804944E-01  4.055203E-02  1.000000E-01  1.823165E-01  4.096140E-02  0.000000E+00  2.664514E-02  1.625456E-03  5.317676E-06 -8.543480E-01  0.000000E+00
  1.606322E-01  3.924333E-02  1.000000E-01  1.622538E-01  3.963948E-02  0.000000E+00  2.642702E-02  1.851628E-03  3.670313E-06 -8.527344E-01  0.000000E+00
  1.427846E-01  3.790648E-02  1.000000E-01  1.442260E-01  3.828914E-02  0.000000E+00  2.634769E-02  2.083825E-03  2.694555E-06 -8.543839E-01  0.000000E+00
  1.268364E-01  3.657247E-02  1.000000E-01  1.281168E-01  3.694166E-02  0.000000E+00  2.670074E-02  2.368132E-03  2.849963E-06 -8.546999E-01  0.000000E+00
  1.126591E-01  3.523783E-02  1.000000E-01  1.137964E-01  3.559355E-02  0.000000E+00  2.729641E-02  2.698388E-03  3.547364E-06 -8.525698E-01  0.000000E+00
  1.001122E-01  3.392969E-02  1.000000E-01  1.011229E-01  3.427221E-02  0.000000E+00  2.788537E-02  3.044133E-03  4.223017E-06 -8.490281E-01  0.000000E+00
  8.905295E-02  3.266176E-02  1.000000E-01  8.995192E-02  3.299148E-02  0.000000E+00  2.842276E-02  3.439834E-03  4.697190E-06 -8.409918E-01  0.000000E+00
  7.934293E-02  3.141868E-02  1.000000E-01  8.014388E-02  3.173585E-02  0.000000E+00  2.884892E-02  3.892425E-03  5.041614E-06 -8.270373E-01  0.000000E+00
  7.084616E-02  3.020725E-02  1.000000E-01  7.156134E-02  3.051219E-02  0.000000E+00  2.907802E-02  4.385229E-03  5.369200E-06 -8.080337E-01  0.000000E+00
  6.343528E-02  2.902336E-02  1.000000E-01  6.407564E-02  2.931635E-02  0.000000E+00  2.905692E-02  4.899928E-03  5.736279E-06 -7.864378E-01  0.000000E+00
  5.699010E-02  2.787207E-02  1.000000E-01  5.756541E-02  2.815343E-02  0.000000E+00  2.872091E-02  5.352522E-03  6.142544E-06 -7.702460E-01  0.000000E+00
  5.139610E-02  2.677740E-02  1.000000E-01  5.191493E-02  2.704771E-02  0.000000E+00  2.818647E-02  5.707990E-03  6.573788E-06 -7.658074E-01  0.000000E+00
  4.654812E-02  2.575824E-02  1.000000E-01  4.701801E-02  2.601827E-02  0.000000E+00  2.777106E-02  6.091948E-03  7.022429E-06 -7.682329E-01  0.000000E+00
  4.235795E-02  2.479698E-02  1.000000E-01  4.278554E-02  2.504731E-02  0.000000E+00  2.749619E-02  6.486364E-03  7.432867E-06 -7.773903E-01  0.000000E+00
  3.873890E-02  2.391284E-02  1.000000E-01  3.912996E-02  2.415424E-02  0.000000E+00  2.732006E-02  6.802352E-03  7.736257E-06 -7.979671E-01  0.000000E+00
  3.561315E-02  2.311923E-02  1.000000E-01  3.597266E-02  2.335262E-02  0.000000E+00  2.752494E-02  7.225589E-03  7.952155E-06 -8.180932E-01  0.000000E+00
  3.292255E-02  2.238591E-02  1.000000E-01  3.325490E-02  2.261189E-02  0.000000E+00  2.791321E-02  7.647755E-03  8.069479E-06 -8.403929E-01  0.000000E+00
  3.060022E-02  2.174362E-02  1.000000E-01  3.090912E-02  2.196311E-02  0.000000E+00  2.857128E-02  8.130193E-03  8.146865E-06 -8.598943E-01  0.000000E+00
  2.860320E-02  2.116112E-02  1.000000E-01  2.889195E-02  2.137473E-02  0.000000E+00  2.942643E-02  8.735756E-03  8.252430E-06 -8.670183E-01  0.000000E+00
  2.688661E-02  2.063676E-02  1.000000E-01  2.715803E-02  2.084508E-02  0.000000E+00  3.008453E-02  9.093213E-03  8.301167E-06 -8.808344E-01  0.000000E+00
  2.540402E-02  2.019225E-02  1.000000E-01  2.566047E-02  2.039608E-02  0.000000E+00  3.113675E-02  9.655970E-03  8.371597E-06 -8.824090E-01  0.000000E+00
  2.413242E-02  1.978900E-02  1.000000E-01  2.437603E-02  1.998877E-02  0.000000E+00  3.129918E-02  1.030094E-02  8.476024E-06 -8.549573E-01  0.000000E+00
  2.304571E-02  1.941467E-02  1.000000E-01  2.327836E-02  1.961066E-02  0.000000E+00  2.872834E-02  9.837620E-03  8.314889E-06 -8.444058E-01  0.000000E+00
  2.211012E-02  1.909127E-02  1.000000E-01  2.233332E-02  1.928399E-02  0.000000E+00  2.634418E-02  8.989071E-03  7.842912E-06 -8.769540E-01  0.000000E+00
  2.130286E-02  1.881785E-02  1.000000E-01  2.151791E-02  1.900781E-02  0.000000E+00  3.025072E-02  1.022294E-02  7.565608E-06 -9.279056E-01  0.000000E+00
  2.060777E-02  1.858314E-02  1.000000E-01  2.081581E-02  1.877073E-02  0.000000E+00  4.541472E-02  1.576651E-02  8.247047E-06 -9.628243E-01  0.000000E+00
  2.001274E-02  1.837212E-02  1.000000E-01  2.021477E-02  1.855758E-02  0.000000E+00  7.316592E-02  2.713011E-02  1.038035E-05 -9.627451E-01  0.000000E+00
  1.950557E-02  1.817767E-02  1.000000E-01  1.970248E-02  1.836117E-02  0.000000E+00  1.053377E-01  4.250532E-02  1.367116E-05 -9.167804E-01  0.000000E+00
  1.907426E-02  1.799798E-02  1.000000E-01  1.926681E-02  1.817966E-02  0.000000E+00  1.127769E-01  4.867166E-02  1.655975E-05 -7.892309E-01  0.000000E+00
  1.870790E-02  1.783261E-02  1.000000E-01  1.889676E-02  1.801263E-02  0.000000E+00  7.788269E-02  3.556501E-02  1.585962E-05 -6.126072E-01  0.000000E+00
  9.900000E-01  3.461761E-03  1.000000E-01  9.999939E-01  3.496707E-03  0.000000E+00 -7.540513E-05  1.119072E-04 -6.371687E-06  1.752644E-01  0.000000E+00
  9.896190E-01  3.590163E-03  1.000000E-01  9.996091E-01  3.626406E-03  0.000000E+00  4.237951E-05  9.281324E-06 -6.795471E-06  1.711993E-01  0.000000E+00
  9.891761E-01  3.739463E-03  1.000000E-01  9.991617E-01  3.777212E-03  0.000000E+00  1.740498E-04 -6.824876E-05 -7.170785E-06  1.738745E-01  0.000000E+00
  9.886612E-01  3.912838E-03  1.000000E-01  9.986416E-01  3.952338E-03  0.000000E+00  7.296334E-05 -2.315354E-05 -7.535450E-06  1.741574E-01  0.000000E+00
  9.880626E-01  4.113824E-03  1.000000E-01  9.980369E-01  4.155352E-03  0.000000E+00 -7.796428E-05  2.702459E-05 -7.878849E-06  1.740427E-01  0.000000E+00
  9.873666E-01  4.346285E-03  1.000000E-01  9.973339E-01  4.390160E-03  0.000000E+00 -2.296177E-04  7.640095E-05 -8.164825E-06  1.740621E-01  0.000000E+00
  9.865575E-01  4.614740E-03  1.000000E-01  9.965166E-01  4.661325E-03  0.000000E+00 -3.744741E-04  1.240625E-04 -8.366477E-06  1.739399E-01  0.000000E+00
  9.856173E-01  4.925175E-03  1.000000E-01  9.955669E-01  4.974894E-03  0.000000E+00 -5.001889E-04  1.650275E-04 -8.479496E-06  1.736906E-01  0.000000E+00
  9.845253E-01  5.284714E-03  1.000000E-01  9.944639E-01  5.338062E-03  0.000000E+00 -6.006902E-04  1.974321E-04 -8.516345E-06  1.733349E-01  0.000000E+00
  9.832574E-01  5.700575E-03  1.000000E-01  9.931832E-01  5.758121E-03  0.000000E+00 -6.749579E-04  2.206844E-04 -8.497119E-06  1.728743E-01  0.000000E+00
  9.817855E-01  6.180339E-03  1.000000E-01  9.916965E-01  6.242729E-03  0.000000E+00 -7.250506E-04  2.351293E-04 -8.441998E-06  1.723291E-01  0.000000E+00
  9.800770E-01  6.731741E-03  1.000000E-01  9.899707E-01  6.799697E-03  0.000000E+00 -7.558071E-04  2.424067E-04 -8.366678E-06  1.717293E-01  0.000000E+00
  9.780945E-01  7.363589E-03  1.000000E-01  9.879682E-01  7.437923E-03  0.000000E+00 -7.745354E-04  2.455764E-04 -8.281744E-06  1.711191E-01  0.000000E+00
  9.757960E-01  8.088463E-03  1.000000E-01  9.856465E-01  8.170115E-03  0.000000E+00 -7.892220E-04  2.475644E-04 -8.194903E-06  1.704819E-01  0.000000E+00
  9.731333E-01  8.919254E-03  1.000000E-01  9.829569E-01  9.009293E-03  0.000000E+00 -8.053066E-04  2.495087E-04 -8.115141E-06  1.697263E-01  0.000000E+00
  9.700502E-01  9.867667E-03  1.000000E-01  9.798427E-01  9.967279E-03  0.000000E+00 -8.235587E-04  2.512914E-04 -8.057197E-06  1.687178E-01  0.000000E+00
  9.664835E-01  1.094705E-02  1.000000E-01  9.762400E-01  1.105755E-02  0.000000E+00 -8.388264E-04  2.514135E-04 -8.044250E-06  1.672122E-01  0.000000E+00
  9.623613E-01  1.217037E-02  1.000000E-01  9.720762E-01  1.229323E-02  0.000000E+00 -8.392270E-04  2.461139E-04 -8.108443E-06  1.648657E-01  0.000000E+00
  9.576015E-01  1.354790E-02  1.000000E-01  9.672683E-01  1.368466E-02  0.000000E+00 -8.053627E-04  2.299192E-04 -8.288142E-06  1.611913E-01  0.000000E+00
  9.521126E-01  1.509032E-02  1.000000E-01  9.617240E-01  1.524265E-02  0.000000E+00 -7.072581E-04  1.961449E-04 -8.622750E-06  1.553359E-01  0.000000E+00
  9.457943E-01  1.681200E-02  1.000000E-01  9.553420E-01  1.698171E-02  0.000000E+00 -5.028614E-04  1.353750E-04 -9.148551E-06  1.461748E-01  0.000000E+00
  9.385342E-01  1.871940E-02  1.000000E-01  9.480086E-01  1.890836E-02  0.000000E+00 -1.394744E-04  3.720262E-05 -9.893543E-06  1.322945E-01  0.000000E+00
  9.302097E-01  2.081565E-02  1.000000E-01  9.396000E-01  2.102578E-02  0.000000E+00  4.431977E-04 -1.069214E-04 -1.086888E-05  1.119153E-01  0.000000E+00
  9.206880E-01  2.309747E-02  1.000000E-01  9.299822E-01  2.333064E-02  0.000000E+00  1.305759E-03 -3.014183E-04 -1.205769E-05  8.308939E-02  0.000000E+00
  9.098285E-01  2.555362E-02  1.000000E-01  9.190130E-01  2.581158E-02  0.000000E+00  2.494018E-03 -5.410251E-04 -1.340942E-05  4.441105E-02  0.000000E+00
  8.974843E-01  2.816402E-02  1.000000E-01  9.065442E-01  2.844833E-02  0.000000E+00  4.011747E-03 -8.064762E-04 -1.484708E-05 -3.353739E-03  0.000000E+00
    1    2
    2    3
    3    4
    4    5
    5    6
    6    7
    7    8
    8    9
    9   10
   10   11
   11   12
   12   13
   13   14
   14   15
   15   16
   16   17
   17   18
   18   19
   19   20
   20   21
   21   22
   22   23
   23   24
   24   25
   25   26
   26   27
   27   28
   28   29
   29   30
   30   31
   31   32
   32   33
   33   34
   34   35
   35   36
   36   37
   37   38
   38   39
   39   40
   40   41
   41   42
   42   43
   43   44
   44   45
   45   46
   46   47
   47   48
   48   49
   49   50
   50   51
   51   52
   52   53
   53   54
   54   55
   56   57
   57   58
   58   59
   59   60
   61   62
   62   63
   63   64
   64   56
   65   66
   66   67
   67   68
   68   69
   69   70
   70   71
   71   72
   72   73
   73   74
   74   75
   75   76
   76   77
   77   78
   78   79
   79   80
   80   81
   81   82
   82   83
   83   84
   84   85
   85   86
   86   87
   87   88
   88   89
   89   90
   91   92
   92   93
   93   94
   94   95
   95   96
   96   97
   97   98
   98   99
  100  101
  101  102
  102  103
  103  104
  104  105
  105  106
  106  107
  107  108
  108  109
  109  110
  110  111
  111  112
  112  113
  113  114
  114  115
  115  116
  116  117
  117  118
  118  119
  119  120
  120  121
  121  122
  122  123
  123  124
  124  125
  125  126
  126  127
  127  128
  128  129
  129  130
  130  131
  131  132
  132  133
  133  134
  134  135
  135  136
  136  137
  137  138
  138  139
  139  140
  140  141
  141  142
  142  143
  143  144
  144  145
  145  146
  146  147
  147  148
  148  149
  149  150
  150  151
  151  152
  152  153
  153  154
  155  156
  156  157
  157  158
  158  159
  159  160
  160  161
  161  162
  162  163
  163  164
  164  165
  165  166
  166  167
  167  168