 Title = "ADflow Slice Data"
Variables =  "CoordinateX"  "CoordinateY"  "CoordinateZ"  "XoC"  "YoC"  "ZoC" "VelocityX" "VelocityY" "VelocityZ" "CoefPressure" "Mach" 
Zone T= "Slice_0001 None Relative Regular z = 0.10000000"
 Nodes =          180  Elements=          174  ZONETYPE=FELINESEG
 DATAPACKING=POINT
  9.573285E-02 -1.443947E-02  1.000000E-01  9.669981E-02 -1.458532E-02  0.000000E+00  1.448837E-02 -1.180161E-04  6.508951E-06  1.393991E-02  0.000000E+00
  1.101708E-01 -1.448142E-02  1.000000E-01  1.112836E-01 -1.462769E-02  0.000000E+00  1.405378E-02  2.254371E-05  6.734828E-06  1.545292E-02  0.000000E+00
  1.263971E-01 -1.438971E-02  1.000000E-01  1.276738E-01 -1.453506E-02  0.000000E+00  1.361985E-02  1.388238E-04  6.961452E-06  1.851970E-02  0.000000E+00
  1.445420E-01 -1.413079E-02  1.000000E-01  1.460019E-01 -1.427352E-02  0.000000E+00  1.318532E-02  2.372587E-04  7.187940E-06  2.226940E-02  0.000000E+00
  1.647197E-01 -1.370080E-02  1.000000E-01  1.663835E-01 -1.383919E-02  0.000000E+00  1.275604E-02  3.151147E-04  7.414502E-06  2.780125E-02  0.000000E+00
  1.870200E-01 -1.308363E-02  1.000000E-01  1.889090E-01 -1.321578E-02  0.000000E+00  1.233207E-02  3.763685E-04  7.639389E-06  3.433186E-02  0.000000E+00
  2.114993E-01 -1.227669E-02  1.000000E-01  2.136355E-01 -1.240069E-02  0.000000E+00  1.191528E-02  4.225295E-04  7.861374E-06  4.182317E-02  0.000000E+00
  2.381710E-01 -1.127427E-02  1.000000E-01  2.405766E-01 -1.138815E-02  0.000000E+00  1.150949E-02  4.543008E-04  8.079574E-06  5.037822E-02  0.000000E+00
  2.669974E-01 -1.009251E-02  1.000000E-01  2.696943E-01 -1.019445E-02  0.000000E+00  1.111997E-02  4.723315E-04  8.293163E-06  5.985932E-02  0.000000E+00
  2.978815E-01 -8.745936E-03  1.000000E-01  3.008902E-01 -8.834275E-03  0.000000E+00  1.075253E-02  4.774126E-04  8.501787E-06  6.992308E-02  0.000000E+00
  3.306624E-01 -7.275414E-03  1.000000E-01  3.340023E-01 -7.348900E-03  0.000000E+00  1.041366E-02  4.695751E-04  8.705716E-06  8.045260E-02  0.000000E+00
  3.651134E-01 -5.725906E-03  1.000000E-01  3.688012E-01 -5.783741E-03  0.000000E+00  1.010586E-02  4.518992E-04  8.904255E-06  9.067599E-02  0.000000E+00
  4.009439E-01 -4.145160E-03  1.000000E-01  4.049936E-01 -4.187028E-03  0.000000E+00  9.830202E-03  4.269987E-04  9.096784E-06  1.003004E-01  0.000000E+00
  4.378068E-01 -2.581000E-03  1.000000E-01  4.422289E-01 -2.607069E-03  0.000000E+00  9.587805E-03  3.963163E-04  9.282575E-06  1.093362E-01  0.000000E+00
  4.753106E-01 -1.083683E-03  1.000000E-01  4.801115E-01 -1.094629E-03  0.000000E+00  9.380836E-03  3.601353E-04  9.460963E-06  1.177783E-01  0.000000E+00
  5.130353E-01  2.950774E-04  1.000000E-01  5.182172E-01  2.980579E-04  0.000000E+00  9.212090E-03  3.182454E-04  9.631558E-06  1.253983E-01  0.000000E+00
  5.505505E-01  1.504772E-03  1.000000E-01  5.561113E-01  1.519971E-03  0.000000E+00  9.083557E-03  2.707945E-04  9.794173E-06  1.318628E-01  0.000000E+00
  5.874349E-01  2.503776E-03  1.000000E-01  5.933683E-01  2.529065E-03  0.000000E+00  8.993860E-03  2.202795E-04  9.947985E-06  1.366291E-01  0.000000E+00
  6.232946E-01  3.278350E-03  1.000000E-01  6.295902E-01  3.311463E-03  0.000000E+00  8.937749E-03  1.708882E-04  1.009153E-05  1.391620E-01  0.000000E+00
  6.577792E-01  3.843239E-03  1.000000E-01  6.644231E-01  3.882057E-03  0.000000E+00  8.911299E-03  1.228911E-04  1.022505E-05  1.403008E-01  0.000000E+00
  6.905951E-01  4.202219E-03  1.000000E-01  6.975705E-01  4.244664E-03  0.000000E+00  8.909393E-03  7.721516E-05  1.034737E-05  1.401953E-01  0.000000E+00
  7.215124E-01  4.392011E-03  1.000000E-01  7.288001E-01  4.436372E-03  0.000000E+00  8.927396E-03  3.397150E-05  1.045788E-05  1.390377E-01  0.000000E+00
  7.503678E-01  4.427535E-03  1.000000E-01  7.579470E-01  4.472256E-03  0.000000E+00  8.961490E-03 -6.714746E-06  1.055663E-05  1.371481E-01  0.000000E+00
  7.770632E-01  4.347496E-03  1.000000E-01  7.849120E-01  4.391408E-03  0.000000E+00  9.006390E-03 -4.273489E-05  1.064300E-05  1.341982E-01  0.000000E+00
  8.015602E-01  4.182698E-03  1.000000E-01  8.096564E-01  4.224946E-03  0.000000E+00  9.060268E-03 -7.623899E-05  1.071890E-05  1.310950E-01  0.000000E+00
  8.238728E-01  3.951715E-03  1.000000E-01  8.321943E-01  3.991630E-03  0.000000E+00  9.120251E-03 -1.069381E-04  1.078446E-05  1.277792E-01  0.000000E+00
  8.440580E-01  3.681865E-03  1.000000E-01  8.525835E-01  3.719054E-03  0.000000E+00  9.182571E-03 -1.332608E-04  1.083962E-05  1.239851E-01  0.000000E+00
  8.622070E-01  3.393080E-03  1.000000E-01  8.709157E-01  3.427352E-03  0.000000E+00  9.245755E-03 -1.562351E-04  1.088617E-05  1.202383E-01  0.000000E+00
  8.784351E-01  3.098584E-03  1.000000E-01  8.873078E-01  3.129881E-03  0.000000E+00  9.309157E-03 -1.770799E-04  1.092538E-05  1.167180E-01  0.000000E+00
  8.928741E-01  2.807452E-03  1.000000E-01  9.018926E-01  2.835809E-03  0.000000E+00  9.372137E-03 -1.962611E-04  1.095808E-05  1.133973E-01  0.000000E+00
  9.056649E-01  2.525963E-03  1.000000E-01  9.148126E-01  2.551476E-03  0.000000E+00  9.432422E-03 -2.121721E-04  1.098438E-05  1.099415E-01  0.000000E+00
  9.169517E-01  2.263406E-03  1.000000E-01  9.262134E-01  2.286268E-03  0.000000E+00  9.489069E-03 -2.253506E-04  1.100555E-05  1.066381E-01  0.000000E+00
  9.268770E-01  2.020169E-03  1.000000E-01  9.362390E-01  2.040573E-03  0.000000E+00  9.543348E-03 -2.376410E-04  1.102307E-05  1.038275E-01  0.000000E+00
  9.355788E-01  1.797462E-03  1.000000E-01  9.450286E-01  1.815617E-03  0.000000E+00  9.595792E-03 -2.487289E-04  1.103720E-05  1.011487E-01  0.000000E+00
  9.431877E-01  1.595498E-03  1.000000E-01  9.527144E-01  1.611614E-03  0.000000E+00  9.647042E-03 -2.587014E-04  1.104894E-05  9.858427E-02  0.000000E+00
  9.498255E-01  1.413708E-03  1.000000E-01  9.594192E-01  1.427988E-03  0.000000E+00  9.697671E-03 -2.677156E-04  1.105921E-05  9.617071E-02  0.000000E+00
  9.556045E-01  1.251165E-03  1.000000E-01  9.652566E-01  1.263803E-03  0.000000E+00  9.747709E-03 -2.758200E-04  1.106844E-05  9.389813E-02  0.000000E+00
  9.606269E-01  1.106668E-03  1.000000E-01  9.703297E-01  1.117846E-03  0.000000E+00  9.796140E-03 -2.825862E-04  1.107660E-05  9.173745E-02  0.000000E+00
  9.649851E-01  9.792473E-04  1.000000E-01  9.747320E-01  9.891383E-04  0.000000E+00  9.840739E-03 -2.871360E-04  1.108338E-05  8.964634E-02  0.000000E+00
  9.687620E-01  8.680846E-04  1.000000E-01  9.785470E-01  8.768527E-04  0.000000E+00  9.879747E-03 -2.895000E-04  1.108882E-05  8.774707E-02  0.000000E+00
  9.720313E-01  7.716875E-04  1.000000E-01  9.818494E-01  7.794820E-04  0.000000E+00  9.913051E-03 -2.904092E-04  1.109327E-05  8.613827E-02  0.000000E+00
  9.748585E-01  6.884938E-04  1.000000E-01  9.847051E-01  6.954480E-04  0.000000E+00  9.941460E-03 -2.904443E-04  1.109697E-05  8.477179E-02  0.000000E+00
  9.773012E-01  6.168613E-04  1.000000E-01  9.871725E-01  6.230919E-04  0.000000E+00  9.965873E-03 -2.899625E-04  1.109947E-05  8.361865E-02  0.000000E+00
  9.794102E-01  5.552947E-04  1.000000E-01  9.893027E-01  5.609035E-04  0.000000E+00  9.985874E-03 -2.886234E-04  1.109784E-05  8.259518E-02  0.000000E+00
  9.812298E-01  5.026312E-04  1.000000E-01  9.911407E-01  5.077081E-04  0.000000E+00  9.999612E-03 -2.863125E-04  1.108656E-05  8.168685E-02  0.000000E+00
  9.827989E-01  4.576790E-04  1.000000E-01  9.927257E-01  4.623018E-04  0.000000E+00  1.000594E-02 -2.837172E-04  1.106225E-05  8.093938E-02  0.000000E+00
  9.841514E-01  4.192807E-04  1.000000E-01  9.940918E-01  4.235156E-04  0.000000E+00  1.000766E-02 -2.816572E-04  1.103599E-05  8.029629E-02  0.000000E+00
  9.853166E-01  3.863953E-04  1.000000E-01  9.952689E-01  3.902981E-04  0.000000E+00  1.001502E-02 -2.804853E-04  1.104562E-05  7.967052E-02  0.000000E+00
  9.863202E-01  3.581545E-04  1.000000E-01  9.962826E-01  3.617720E-04  0.000000E+00  1.003745E-02 -2.798967E-04  1.113740E-05  7.882490E-02  0.000000E+00
  9.871842E-01  3.339754E-04  1.000000E-01  9.971553E-01  3.373487E-04  0.000000E+00  1.005838E-02 -2.797150E-04  1.128497E-05  7.806728E-02  0.000000E+00
  9.879280E-01  3.133779E-04  1.000000E-01  9.979066E-01  3.165432E-04  0.000000E+00  1.000397E-02 -2.718504E-04  1.127172E-05  7.866425E-02  0.000000E+00
  9.885681E-01  2.958229E-04  1.000000E-01  9.985531E-01  2.988109E-04  0.000000E+00  9.668530E-03 -2.557272E-04  1.065283E-05  7.648061E-02  0.000000E+00
  9.891188E-01  2.808003E-04  1.000000E-01  9.991094E-01  2.836366E-04  0.000000E+00  9.060671E-03 -3.110278E-04  9.022411E-06  7.646023E-02  0.000000E+00
  9.895925E-01  2.679056E-04  1.000000E-01  9.995879E-01  2.706116E-04  0.000000E+00  9.186313E-03 -1.180677E-04  6.557525E-06  1.140550E-01  0.000000E+00
  9.900000E-01  2.568135E-04  1.000000E-01  9.999995E-01  2.594074E-04  0.000000E+00  5.636761E-03 -5.119888E-03  2.456003E-06 -5.742479E-02  0.000000E+00
  9.900000E-01  6.054080E-04  1.000000E-01  9.999995E-01  6.115229E-04  0.000000E+00  3.486542E-05  1.012516E-03 -1.207897E-05 -2.649818E-02  0.000000E+00
  9.900000E-01  5.182593E-04  1.000000E-01  9.999995E-01  5.234940E-04  0.000000E+00  8.288573E-05 -1.082872E-02 -1.161477E-05 -2.548879E-02  0.000000E+00
  9.900000E-01  4.311107E-04  1.000000E-01  9.999995E-01  4.354652E-04  0.000000E+00 -2.564476E-04 -2.171981E-02 -8.676014E-06 -2.640465E-02  0.000000E+00
  9.900000E-01  3.439621E-04  1.000000E-01  9.999995E-01  3.474363E-04  0.000000E+00  4.945254E-04 -1.840936E-02 -3.426019E-06 -1.451366E-01  0.000000E+00
  9.900000E-01  2.568135E-04  1.000000E-01  9.999995E-01  2.594074E-04  0.000000E+00  5.636761E-03 -5.119888E-03  2.456003E-06 -5.742479E-02  0.000000E+00
  9.900000E-01  9.540025E-04  1.000000E-01  9.999995E-01  9.636384E-04  0.000000E+00  4.276201E-03  3.152561E-03 -6.596519E-06 -5.357511E-02  0.000000E+00
  9.900000E-01  8.668539E-04  1.000000E-01  9.999995E-01  8.756095E-04  0.000000E+00  3.901869E-04  1.456461E-02 -6.833894E-06 -1.257487E-01  0.000000E+00
  9.900000E-01  7.797052E-04  1.000000E-01  9.999995E-01  7.875807E-04  0.000000E+00 -2.102570E-04  1.896110E-02 -8.546063E-06 -3.529111E-02  0.000000E+00
  9.900000E-01  6.925566E-04  1.000000E-01  9.999995E-01  6.995518E-04  0.000000E+00  6.720246E-05  1.141094E-02 -1.066249E-05 -3.165707E-02  0.000000E+00
  6.350089E-04 -1.958976E-03  1.000000E-01  6.414228E-04 -1.978762E-03  0.000000E+00  5.973782E-03 -9.717161E-03  3.085830E-06  9.831382E-01  0.000000E+00
  8.495219E-04 -2.305609E-03  1.000000E-01  8.581026E-04 -2.328897E-03  0.000000E+00  9.245669E-03 -1.277994E-02  3.165486E-06  9.450116E-01  0.000000E+00
  1.144412E-03 -2.671692E-03  1.000000E-01  1.155971E-03 -2.698677E-03  0.000000E+00  1.231059E-02 -1.297756E-02  3.216171E-06  8.445163E-01  0.000000E+00
  1.555252E-03 -3.038493E-03  1.000000E-01  1.570960E-03 -3.069184E-03  0.000000E+00  1.391848E-02 -1.246798E-02  3.172134E-06  7.949808E-01  0.000000E+00
  2.031517E-03 -3.466267E-03  1.000000E-01  2.052037E-03 -3.501278E-03  0.000000E+00  1.513651E-02 -1.191854E-02  3.108596E-06  7.386540E-01  0.000000E+00
  2.640472E-03 -3.889186E-03  1.000000E-01  2.667142E-03 -3.928469E-03  0.000000E+00  1.584615E-02 -1.038346E-02  3.080262E-06  6.307054E-01  0.000000E+00
  3.378538E-03 -4.338651E-03  1.000000E-01  3.412663E-03 -4.382474E-03  0.000000E+00  1.592680E-02 -9.282573E-03  3.054316E-06  5.934360E-01  0.000000E+00
  4.252649E-03 -4.829655E-03  1.000000E-01  4.295603E-03 -4.878437E-03  0.000000E+00  1.598014E-02 -8.172803E-03  3.056814E-06  5.199004E-01  0.000000E+00
  5.310961E-03 -5.317442E-03  1.000000E-01  5.364605E-03 -5.371151E-03  0.000000E+00  1.585502E-02 -7.113923E-03  3.096207E-06  4.552153E-01  0.000000E+00
  6.550623E-03 -5.857196E-03  1.000000E-01  6.616787E-03 -5.916357E-03  0.000000E+00  1.582944E-02 -6.374865E-03  3.171564E-06  4.101894E-01  0.000000E+00
  8.020987E-03 -6.405509E-03  1.000000E-01  8.102003E-03 -6.470209E-03  0.000000E+00  1.591690E-02 -5.659173E-03  3.294283E-06  3.460425E-01  0.000000E+00
  9.745072E-03 -6.986443E-03  1.000000E-01  9.843503E-03 -7.057010E-03  0.000000E+00  1.616186E-02 -5.162352E-03  3.460604E-06  3.067323E-01  0.000000E+00
  1.176291E-02 -7.600325E-03  1.000000E-01  1.188173E-02 -7.677092E-03  0.000000E+00  1.646476E-02 -4.600633E-03  3.663455E-06  2.519649E-01  0.000000E+00
  1.412982E-02 -8.204639E-03  1.000000E-01  1.427254E-02 -8.287510E-03  0.000000E+00  1.673476E-02 -4.081915E-03  3.889344E-06  2.079982E-01  0.000000E+00
  1.688353E-02 -8.844955E-03  1.000000E-01  1.705407E-02 -8.934293E-03  0.000000E+00  1.704632E-02 -3.713342E-03  4.117006E-06  1.826333E-01  0.000000E+00
  2.008659E-02 -9.501535E-03  1.000000E-01  2.028948E-02 -9.597506E-03  0.000000E+00  1.723707E-02 -3.256146E-03  4.339674E-06  1.426904E-01  0.000000E+00
  2.380837E-02 -1.014678E-02  1.000000E-01  2.404884E-02 -1.024927E-02  0.000000E+00  1.724543E-02 -2.769534E-03  4.561417E-06  1.091260E-01  0.000000E+00
  2.811984E-02 -1.078554E-02  1.000000E-01  2.840387E-02 -1.089447E-02  0.000000E+00  1.715416E-02 -2.349062E-03  4.777827E-06  8.910795E-02  0.000000E+00
  3.310278E-02 -1.141576E-02  1.000000E-01  3.343714E-02 -1.153107E-02  0.000000E+00  1.699173E-02 -1.969691E-03  4.986615E-06  7.101174E-02  0.000000E+00
  3.884984E-02 -1.202515E-02  1.000000E-01  3.924224E-02 -1.214661E-02  0.000000E+00  1.675619E-02 -1.612439E-03  5.193470E-06  5.303859E-02  0.000000E+00
  4.546298E-02 -1.260004E-02  1.000000E-01  4.592218E-02 -1.272730E-02  0.000000E+00  1.646428E-02 -1.288170E-03  5.403618E-06  3.893161E-02  0.000000E+00
  5.305344E-02 -1.313196E-02  1.000000E-01  5.358931E-02 -1.326460E-02  0.000000E+00  1.612794E-02 -9.946376E-04  5.617957E-06  2.842236E-02  0.000000E+00
  6.174281E-02 -1.359991E-02  1.000000E-01  6.236645E-02 -1.373728E-02  0.000000E+00  1.574595E-02 -7.207286E-04  5.836185E-06  1.956578E-02  0.000000E+00
  7.166089E-02 -1.397838E-02  1.000000E-01  7.238471E-02 -1.411957E-02  0.000000E+00  1.533691E-02 -4.823098E-04  6.058898E-06  1.484148E-02  0.000000E+00
  8.294380E-02 -1.426258E-02  1.000000E-01  8.378158E-02 -1.440664E-02  0.000000E+00  1.491912E-02 -2.868916E-04  6.284175E-06  1.424120E-02  0.000000E+00
  9.573285E-02 -1.443947E-02  1.000000E-01  9.669981E-02 -1.458532E-02  0.000000E+00  1.448837E-02 -1.180161E-04  6.508951E-06  1.393991E-02  0.000000E+00
  6.350089E-04  2.270450E-03  1.000000E-01  6.414228E-04  2.293383E-03  0.000000E+00  1.027234E-02  2.233458E-02  1.152040E-06  5.722413E-01  0.000000E+00
  3.858844E-04  1.730838E-03  1.000000E-01  3.897820E-04  1.748320E-03  0.000000E+00  8.352352E-03  2.119593E-02  1.354345E-06  6.503752E-01  0.000000E+00
  2.019496E-04  1.171370E-03  1.000000E-01  2.039894E-04  1.183202E-03  0.000000E+00  5.064575E-03  1.955470E-02  1.504399E-06  8.004490E-01  0.000000E+00
  1.011495E-04  5.856735E-04  1.000000E-01  1.021712E-04  5.915891E-04  0.000000E+00  2.725859E-03  1.600474E-02  1.769824E-06  8.670839E-01  0.000000E+00
  0.000000E+00  0.000000E+00  1.000000E-01  0.000000E+00  0.000000E+00  0.000000E+00  3.147328E-04  1.164413E-02  2.063927E-06  9.621142E-01  0.000000E+00
  9.539695E-05 -5.144910E-04  1.000000E-01  9.636051E-05 -5.196877E-04  0.000000E+00 -1.110416E-03  6.155699E-03  2.334462E-06  1.054488E+00  0.000000E+00
  1.927529E-04 -1.028594E-03  1.000000E-01  1.946998E-04 -1.038984E-03  0.000000E+00  2.132756E-04 -3.405212E-05  2.634308E-06  1.049603E+00  0.000000E+00
  3.601869E-04 -1.513698E-03  1.000000E-01  3.638250E-04 -1.528987E-03  0.000000E+00  2.861433E-03 -5.287352E-03  2.916865E-06  1.029833E+00  0.000000E+00
  6.350089E-04 -1.958976E-03  1.000000E-01  6.414228E-04 -1.978762E-03  0.000000E+00  5.973782E-03 -9.717161E-03  3.085830E-06  9.831382E-01  0.000000E+00
  8.925206E-01  1.011206E-02  1.000000E-01  9.015355E-01  1.021420E-02  0.000000E+00  8.442939E-03 -7.486202E-04 -1.245348E-05 -5.090648E-02  0.000000E+00
  8.780233E-01  1.138820E-02  1.000000E-01  8.868918E-01  1.150323E-02  0.000000E+00  8.581703E-03 -7.510154E-04 -1.251689E-05 -6.106443E-02  0.000000E+00
  8.617286E-01  1.280195E-02  1.000000E-01  8.704325E-01  1.293126E-02  0.000000E+00  8.725791E-03 -7.519782E-04 -1.257431E-05 -7.181675E-02  0.000000E+00
  8.435037E-01  1.435764E-02  1.000000E-01  8.520236E-01  1.450266E-02  0.000000E+00  8.873598E-03 -7.515256E-04 -1.262300E-05 -8.299065E-02  0.000000E+00
  8.232320E-01  1.605614E-02  1.000000E-01  8.315471E-01  1.621831E-02  0.000000E+00  9.023938E-03 -7.503468E-04 -1.266027E-05 -9.461419E-02  0.000000E+00
  8.008219E-01  1.789982E-02  1.000000E-01  8.089106E-01  1.808062E-02  0.000000E+00  9.177734E-03 -7.492934E-04 -1.268398E-05 -1.069572E-01  0.000000E+00
  7.762155E-01  1.988701E-02  1.000000E-01  7.840557E-01  2.008788E-02  0.000000E+00  9.338541E-03 -7.486393E-04 -1.269269E-05 -1.204303E-01  0.000000E+00
  7.493983E-01  2.201393E-02  1.000000E-01  7.569676E-01  2.223628E-02  0.000000E+00  9.511948E-03 -7.474974E-04 -1.268591E-05 -1.351901E-01  0.000000E+00
  7.204073E-01  2.426377E-02  1.000000E-01  7.276838E-01  2.450885E-02  0.000000E+00  9.703542E-03 -7.444846E-04 -1.266324E-05 -1.511093E-01  0.000000E+00
  6.893393E-01  2.661154E-02  1.000000E-01  6.963020E-01  2.688033E-02  0.000000E+00  9.916694E-03 -7.398330E-04 -1.262137E-05 -1.685942E-01  0.000000E+00
  6.563566E-01  2.903153E-02  1.000000E-01  6.629862E-01  2.932477E-02  0.000000E+00  1.015573E-02 -7.322313E-04 -1.255865E-05 -1.875655E-01  0.000000E+00
  6.216871E-01  3.147765E-02  1.000000E-01  6.279665E-01  3.179559E-02  0.000000E+00  1.042405E-02 -7.206899E-04 -1.247261E-05 -2.081820E-01  0.000000E+00
  5.856237E-01  3.390930E-02  1.000000E-01  5.915388E-01  3.425181E-02  0.000000E+00  1.072510E-02 -7.042616E-04 -1.236061E-05 -2.306882E-01  0.000000E+00
  5.485154E-01  3.627021E-02  1.000000E-01  5.540557E-01  3.663655E-02  0.000000E+00  1.106359E-02 -6.802374E-04 -1.222223E-05 -2.547149E-01  0.000000E+00
  5.107560E-01  3.849987E-02  1.000000E-01  5.159149E-01  3.888874E-02  0.000000E+00  1.144141E-02 -6.476082E-04 -1.205412E-05 -2.806103E-01  0.000000E+00
  4.727689E-01  4.054522E-02  1.000000E-01  4.775441E-01  4.095475E-02  0.000000E+00  1.186091E-02 -6.040235E-04 -1.185379E-05 -3.085034E-01  0.000000E+00
  4.349874E-01  4.234736E-02  1.000000E-01  4.393810E-01  4.277509E-02  0.000000E+00  1.232457E-02 -5.452002E-04 -1.162078E-05 -3.379546E-01  0.000000E+00
  3.978357E-01  4.385048E-02  1.000000E-01  4.018541E-01  4.429340E-02  0.000000E+00  1.283182E-02 -4.678412E-04 -1.135377E-05 -3.687489E-01  0.000000E+00
  3.617109E-01  4.501113E-02  1.000000E-01  3.653643E-01  4.546576E-02  0.000000E+00  1.338005E-02 -3.691924E-04 -1.105147E-05 -4.008301E-01  0.000000E+00
  3.269664E-01  4.580027E-02  1.000000E-01  3.302689E-01  4.626288E-02  0.000000E+00  1.396712E-02 -2.454156E-04 -1.071493E-05 -4.336997E-01  0.000000E+00
  2.939001E-01  4.620025E-02  1.000000E-01  2.968687E-01  4.666689E-02  0.000000E+00  1.459175E-02 -9.154129E-05 -1.034830E-05 -4.662711E-01  0.000000E+00
  2.627466E-01  4.620307E-02  1.000000E-01  2.654005E-01  4.666974E-02  0.000000E+00  1.524783E-02  9.216235E-05 -9.951665E-06 -4.991035E-01  0.000000E+00
  2.336739E-01  4.583711E-02  1.000000E-01  2.360342E-01  4.630009E-02  0.000000E+00  1.593370E-02  3.082737E-04 -9.526686E-06 -5.327756E-01  0.000000E+00
  2.067852E-01  4.512451E-02  1.000000E-01  2.088738E-01  4.558029E-02  0.000000E+00  1.665450E-02  5.676033E-04 -9.081341E-06 -5.659694E-01  0.000000E+00
  1.821239E-01  4.408671E-02  1.000000E-01  1.839634E-01  4.453201E-02  0.000000E+00  1.740517E-02  8.739399E-04 -8.617373E-06 -5.985485E-01  0.000000E+00
  1.596801E-01  4.276719E-02  1.000000E-01  1.612930E-01  4.319916E-02  0.000000E+00  1.817992E-02  1.231910E-03 -8.137346E-06 -6.297746E-01  0.000000E+00
  1.394008E-01  4.120263E-02  1.000000E-01  1.408089E-01  4.161880E-02  0.000000E+00  1.897408E-02  1.650560E-03 -7.648793E-06 -6.578593E-01  0.000000E+00
  1.211989E-01  3.943050E-02  1.000000E-01  1.224231E-01  3.982877E-02  0.000000E+00  1.976779E-02  2.120676E-03 -7.147812E-06 -6.851653E-01  0.000000E+00
  1.049581E-01  3.751884E-02  1.000000E-01  1.060182E-01  3.789780E-02  0.000000E+00  2.057218E-02  2.663242E-03 -6.647199E-06 -7.085445E-01  0.000000E+00
  9.055142E-02  3.547707E-02  1.000000E-01  9.146604E-02  3.583540E-02  0.000000E+00  2.137846E-02  3.276929E-03 -6.150567E-06 -7.276393E-01  0.000000E+00
  7.783417E-02  3.337372E-02  1.000000E-01  7.862033E-02  3.371081E-02  0.000000E+00  2.217986E-02  3.966534E-03 -5.661533E-06 -7.412250E-01  0.000000E+00
  6.666536E-02  3.122085E-02  1.000000E-01  6.733872E-02  3.153619E-02  0.000000E+00  2.295810E-02  4.731246E-03 -5.183129E-06 -7.494493E-01  0.000000E+00
  5.689665E-02  2.907029E-02  1.000000E-01  5.747134E-02  2.936391E-02  0.000000E+00  2.367813E-02  5.547975E-03 -4.702112E-06 -7.576917E-01  0.000000E+00
  4.838652E-02  2.695171E-02  1.000000E-01  4.887525E-02  2.722394E-02  0.000000E+00  2.437054E-02  6.485311E-03 -4.241364E-06 -7.550324E-01  0.000000E+00
  4.100903E-02  2.485864E-02  1.000000E-01  4.142324E-02  2.510972E-02  0.000000E+00  2.497394E-02  7.507697E-03 -3.799222E-06 -7.411948E-01  0.000000E+00
  3.463411E-02  2.282958E-02  1.000000E-01  3.498393E-02  2.306017E-02  0.000000E+00  2.541158E-02  8.538489E-03 -3.359503E-06 -7.253130E-01  0.000000E+00
  2.914439E-02  2.088321E-02  1.000000E-01  2.943876E-02  2.109414E-02  0.000000E+00  2.569460E-02  9.613907E-03 -2.932570E-06 -7.055976E-01  0.000000E+00
  2.443551E-02  1.902511E-02  1.000000E-01  2.468232E-02  1.921728E-02  0.000000E+00  2.582485E-02  1.077638E-02 -2.533019E-06 -6.725509E-01  0.000000E+00
  2.041561E-02  1.725373E-02  1.000000E-01  2.062182E-02  1.742800E-02  0.000000E+00  2.573487E-02  1.197558E-02 -2.172634E-06 -6.169550E-01  0.000000E+00
  1.699881E-02  1.557540E-02  1.000000E-01  1.717051E-02  1.573272E-02  0.000000E+00  2.531389E-02  1.300113E-02 -1.837181E-06 -5.541140E-01  0.000000E+00
  1.409803E-02  1.401317E-02  1.000000E-01  1.424043E-02  1.415471E-02  0.000000E+00  2.461644E-02  1.375847E-02 -1.503108E-06 -5.098311E-01  0.000000E+00
  1.163361E-02  1.258303E-02  1.000000E-01  1.175111E-02  1.271012E-02  0.000000E+00  2.382497E-02  1.468494E-02 -1.228413E-06 -4.418818E-01  0.000000E+00
  9.572988E-03  1.123539E-02  1.000000E-01  9.669680E-03  1.134887E-02  0.000000E+00  2.281258E-02  1.556250E-02 -1.007597E-06 -3.497925E-01  0.000000E+00
  7.844760E-03  9.998851E-03  1.000000E-01  7.923996E-03  1.009984E-02  0.000000E+00  2.161291E-02  1.595524E-02 -7.698448E-07 -2.906393E-01  0.000000E+00
  6.384891E-03  8.888541E-03  1.000000E-01  6.449382E-03  8.978320E-03  0.000000E+00  2.044602E-02  1.662634E-02 -5.944337E-07 -1.955509E-01  0.000000E+00
  5.193945E-03  7.848487E-03  1.000000E-01  5.246406E-03  7.927761E-03  0.000000E+00  1.937016E-02  1.714740E-02 -4.172845E-07 -1.271880E-01  0.000000E+00
  4.179256E-03  6.938103E-03  1.000000E-01  4.221469E-03  7.008181E-03  0.000000E+00  1.838216E-02  1.793775E-02 -2.579130E-07 -3.435744E-02  0.000000E+00
  3.372893E-03  6.085222E-03  1.000000E-01  3.406961E-03  6.146686E-03  0.000000E+00  1.726743E-02  1.860074E-02 -1.225673E-07  8.390173E-02  0.000000E+00
  2.696046E-03  5.333431E-03  1.000000E-01  2.723278E-03  5.387301E-03  0.000000E+00  1.656078E-02  1.888923E-02  8.656261E-08  1.050885E-01  0.000000E+00
  2.127796E-03  4.674403E-03  1.000000E-01  2.149288E-03  4.721617E-03  0.000000E+00  1.571856E-02  2.029501E-02  2.206908E-07  2.284988E-01  0.000000E+00
  1.699871E-03  4.058798E-03  1.000000E-01  1.717041E-03  4.099794E-03  0.000000E+00  1.436740E-02  2.049997E-02  3.680023E-07  3.495772E-01  0.000000E+00
  1.331824E-03  3.528878E-03  1.000000E-01  1.345276E-03  3.564522E-03  0.000000E+00  1.428430E-02  2.071473E-02  6.174315E-07  3.186146E-01  0.000000E+00
  1.015078E-03  3.073112E-03  1.000000E-01  1.025330E-03  3.104152E-03  0.000000E+00  1.376810E-02  2.376383E-02  7.618614E-07  4.179654E-01  0.000000E+00
  8.072325E-04  2.643395E-03  1.000000E-01  8.153860E-04  2.670095E-03  0.000000E+00  1.172089E-02  2.455195E-02  8.936652E-07  5.546457E-01  0.000000E+00
  6.350089E-04  2.270450E-03  1.000000E-01  6.414228E-04  2.293383E-03  0.000000E+00  1.027234E-02  2.233458E-02  1.152040E-06  5.722413E-01  0.000000E+00
  9.900000E-01  9.540025E-04  1.000000E-01  9.999995E-01  9.636384E-04  0.000000E+00  4.276201E-03  3.152561E-03 -6.596519E-06 -5.357511E-02  0.000000E+00
  9.895912E-01  9.939885E-04  1.000000E-01  9.995866E-01  1.004028E-03  0.000000E+00  6.891745E-03 -7.809831E-04 -7.687482E-06  7.932606E-02  0.000000E+00
  9.891158E-01  1.040475E-03  1.000000E-01  9.991064E-01  1.050985E-03  0.000000E+00  6.667389E-03 -5.972971E-04 -9.133526E-06  4.809430E-02  0.000000E+00
  9.885633E-01  1.094556E-03  1.000000E-01  9.985483E-01  1.105612E-03  0.000000E+00  6.872985E-03 -6.809331E-04 -1.043802E-05  4.975977E-02  0.000000E+00
  9.879211E-01  1.157536E-03  1.000000E-01  9.978997E-01  1.169228E-03  0.000000E+00  6.886740E-03 -6.796467E-04 -1.121754E-05  5.195308E-02  0.000000E+00
  9.871749E-01  1.230984E-03  1.000000E-01  9.971459E-01  1.243417E-03  0.000000E+00  6.769015E-03 -6.671029E-04 -1.149052E-05  5.043546E-02  0.000000E+00
  9.863081E-01  1.316634E-03  1.000000E-01  9.962703E-01  1.329933E-03  0.000000E+00  6.682969E-03 -6.616738E-04 -1.149321E-05  4.955994E-02  0.000000E+00
  9.853013E-01  1.416282E-03  1.000000E-01  9.952533E-01  1.430587E-03  0.000000E+00  6.655197E-03 -6.596973E-04 -1.143043E-05  4.851909E-02  0.000000E+00
  9.841323E-01  1.532046E-03  1.000000E-01  9.940725E-01  1.547520E-03  0.000000E+00  6.672005E-03 -6.620979E-04 -1.140006E-05  4.689829E-02  0.000000E+00
  9.827755E-01  1.666665E-03  1.000000E-01  9.927020E-01  1.683499E-03  0.000000E+00  6.713347E-03 -6.677020E-04 -1.141523E-05  4.471976E-02  0.000000E+00
  9.812013E-01  1.823257E-03  1.000000E-01  9.911120E-01  1.841673E-03  0.000000E+00  6.767481E-03 -6.744959E-04 -1.145689E-05  4.202915E-02  0.000000E+00
  9.793759E-01  2.005132E-03  1.000000E-01  9.892681E-01  2.025384E-03  0.000000E+00  6.831834E-03 -6.814728E-04 -1.150777E-05  3.885384E-02  0.000000E+00
  9.772602E-01  2.215945E-03  1.000000E-01  9.871311E-01  2.238328E-03  0.000000E+00  6.907320E-03 -6.884547E-04 -1.156105E-05  3.520880E-02  0.000000E+00
  9.748097E-01  2.459715E-03  1.000000E-01  9.846558E-01  2.484559E-03  0.000000E+00  6.994456E-03 -6.954184E-04 -1.161637E-05  3.107846E-02  0.000000E+00
  9.719734E-01  2.740920E-03  1.000000E-01  9.817908E-01  2.768605E-03  0.000000E+00  7.092595E-03 -7.020397E-04 -1.167486E-05  2.643140E-02  0.000000E+00
  9.686933E-01  3.064323E-03  1.000000E-01  9.784776E-01  3.095274E-03  0.000000E+00  7.199699E-03 -7.076486E-04 -1.173730E-05  2.140194E-02  0.000000E+00
  9.649037E-01  3.434869E-03  1.000000E-01  9.746497E-01  3.469563E-03  0.000000E+00  7.311985E-03 -7.122476E-04 -1.180401E-05  1.622643E-02  0.000000E+00
  9.605304E-01  3.858340E-03  1.000000E-01  9.702323E-01  3.897312E-03  0.000000E+00  7.426247E-03 -7.174090E-04 -1.187408E-05  1.073157E-02  0.000000E+00
  9.554904E-01  4.342878E-03  1.000000E-01  9.651413E-01  4.386744E-03  0.000000E+00  7.543490E-03 -7.241151E-04 -1.194626E-05  4.445870E-03  0.000000E+00
  9.496909E-01  4.897346E-03  1.000000E-01  9.592833E-01  4.946811E-03  0.000000E+00  7.667134E-03 -7.303224E-04 -1.202069E-05 -2.547883E-03  0.000000E+00
  9.430292E-01  5.528123E-03  1.000000E-01  9.525543E-01  5.583960E-03  0.000000E+00  7.796879E-03 -7.337606E-04 -1.209728E-05 -9.751896E-03  0.000000E+00
  9.353921E-01  6.240837E-03  1.000000E-01  9.448401E-01  6.303873E-03  0.000000E+00  7.928013E-03 -7.352734E-04 -1.217379E-05 -1.700126E-02  0.000000E+00
  9.266572E-01  7.043960E-03  1.000000E-01  9.360170E-01  7.115108E-03  0.000000E+00  8.056609E-03 -7.372154E-04 -1.224775E-05 -2.451318E-02  0.000000E+00
  9.166934E-01  7.949027E-03  1.000000E-01  9.259525E-01  8.029317E-03  0.000000E+00  8.182953E-03 -7.406172E-04 -1.231857E-05 -3.257350E-02  0.000000E+00
  9.053623E-01  8.968179E-03  1.000000E-01  9.145069E-01  9.058763E-03  0.000000E+00  8.310505E-03 -7.448528E-04 -1.238699E-05 -4.137457E-02  0.000000E+00
  8.925206E-01  1.011206E-02  1.000000E-01  9.015355E-01  1.021420E-02  0.000000E+00  8.442939E-03 -7.486202E-04 -1.245348E-05 -5.090648E-02  0.000000E+00
    1    2
    2    3
    3    4
    4    5
    5    6
    6    7
    7    8
    8    9
    9   10
   10   11
   11   12
   12   13
   13   14
   14   15
   15   16
   16   17
   17   18
   18   19
   19   20
   20   21
   21   22
   22   23
   23   24
   24   25
   25   26
   26   27
   27   28
   28   29
   29   30
   30   31
   31   32
   32   33
   33   34
   34   35
   35   36
   36   37
   37   38
   38   39
   39   40
   40   41
   41   42
   42   43
   43   44
   44   45
   45   46
   46   47
   47   48
   48   49
   49   50
   50   51
   51   52
   52   53
   53   54
   54   55
   56   57
   57   58
   58   59
   59   60
   61   62
   62   63
   63   64
   64   56
   65   66
   66   67
   67   68
   68   69
   69   70
   70   71
   71   72
   72   73
   73   74
   74   75
   75   76
   76   77
   77   78
   78   79
   79   80
   80   81
   81   82
   82   83
   83   84
   84   85
   85   86
   86   87
   87   88
   88   89
   89   90
   91   92
   92   93
   93   94
   94   95
   95   96
   96   97
   97   98
   98   99
  100  101
  101  102
  102  103
  103  104
  104  105
  105  106
  106  107
  107  108
  108  109
  109  110
  110  111
  111  112
  112  113
  113  114
  114  115
  115  116
  116  117
  117  118
  118  119
  119  120
  120  121
  121  122
  122  123
  123  124
  124  125
  125  126
  126  127
  127  128
  128  129
  129  130
  130  131
  131  132
  132  133
  133  134
  134  135
  135  136
  136  137
  137  138
  138  139
  139  140
  140  141
  141  142
  142  143
  143  144
  144  145
  145  146
  146  147
  147  148
  148  149
  149  150
  150  151
  151  152
  152  153
  153  154
  155  156
  156  157
  157  158
  158  159
  159  160
  160  161
  161  162
  162  163
  163  164
  164  165
  165  166
  166  167
  167  168