 Title = "ADflow Slice Data"
Variables =  "CoordinateX"  "CoordinateY"  "CoordinateZ"  "XoC"  "YoC"  "ZoC" "VelocityX" "VelocityY" "VelocityZ" "CoefPressure" "Mach" 
Zone T= "Slice_0001 None Relative Regular z = 0.10000000"
 Nodes =          180  Elements=          174  ZONETYPE=FELINESEG
 DATAPACKING=POINT
  9.428087E-02 -3.795670E-02  1.000000E-01  9.523314E-02 -3.834007E-02  0.000000E+00  2.795738E-02 -4.127926E-03  1.571830E-05 -2.067918E-01  0.000000E+00
  1.086418E-01 -3.993620E-02  1.000000E-01  1.097391E-01 -4.033957E-02  0.000000E+00  2.773573E-02 -3.539908E-03  1.547927E-05 -2.465430E-01  0.000000E+00
  1.248211E-01 -4.185242E-02  1.000000E-01  1.260818E-01 -4.227514E-02  0.000000E+00  2.741512E-02 -2.959085E-03  1.520049E-05 -2.873882E-01  0.000000E+00
  1.429542E-01 -4.363356E-02  1.000000E-01  1.443980E-01 -4.407428E-02  0.000000E+00  2.703935E-02 -2.416644E-03  1.492414E-05 -3.254303E-01  0.000000E+00
  1.631517E-01 -4.527480E-02  1.000000E-01  1.647996E-01 -4.573209E-02  0.000000E+00  2.665397E-02 -1.927685E-03  1.468859E-05 -3.597013E-01  0.000000E+00
  1.855049E-01 -4.670850E-02  1.000000E-01  1.873785E-01 -4.718027E-02  0.000000E+00  2.627528E-02 -1.474343E-03  1.453777E-05 -3.922223E-01  0.000000E+00
  2.100673E-01 -4.790620E-02  1.000000E-01  2.121890E-01 -4.839007E-02  0.000000E+00  2.595704E-02 -1.056761E-03  1.455118E-05 -4.238052E-01  0.000000E+00
  2.368507E-01 -4.879809E-02  1.000000E-01  2.392430E-01 -4.929096E-02  0.000000E+00  2.573521E-02 -6.714232E-04  1.477426E-05 -4.550821E-01  0.000000E+00
  2.658122E-01 -4.936250E-02  1.000000E-01  2.684970E-01 -4.986108E-02  0.000000E+00  2.556306E-02 -3.203782E-04  1.509989E-05 -4.857811E-01  0.000000E+00
  2.968495E-01 -4.955608E-02  1.000000E-01  2.998478E-01 -5.005661E-02  0.000000E+00  2.519774E-02  2.583138E-06  1.514959E-05 -5.149547E-01  0.000000E+00
  3.297948E-01 -4.936164E-02  1.000000E-01  3.331258E-01 -4.986021E-02  0.000000E+00  2.428620E-02  2.807651E-04  1.436509E-05 -5.367612E-01  0.000000E+00
  3.644140E-01 -4.877245E-02  1.000000E-01  3.680947E-01 -4.926507E-02  0.000000E+00  2.259977E-02  4.954366E-04  1.238134E-05 -5.396491E-01  0.000000E+00
  4.004098E-01 -4.779019E-02  1.000000E-01  4.044540E-01 -4.827289E-02  0.000000E+00  2.036450E-02  6.402737E-04  9.502979E-06 -5.090147E-01  0.000000E+00
  4.374288E-01 -4.643475E-02  1.000000E-01  4.418470E-01 -4.690375E-02  0.000000E+00  1.820772E-02  7.354467E-04  6.666937E-06 -4.392935E-01  0.000000E+00
  4.750746E-01 -4.474197E-02  1.000000E-01  4.798730E-01 -4.519388E-02  0.000000E+00  1.667234E-02  8.123310E-04  4.731146E-06 -3.459142E-01  0.000000E+00
  5.129234E-01 -4.276103E-02  1.000000E-01  5.181041E-01 -4.319292E-02  0.000000E+00  1.587067E-02  8.886997E-04  3.875260E-06 -2.594424E-01  0.000000E+00
  5.505429E-01 -4.054929E-02  1.000000E-01  5.561035E-01 -4.095885E-02  0.000000E+00  1.557256E-02  9.680289E-04  3.700398E-06 -2.031813E-01  0.000000E+00
  5.875104E-01 -3.815390E-02  1.000000E-01  5.934444E-01 -3.853927E-02  0.000000E+00  1.547918E-02  1.045022E-03  3.688770E-06 -1.772778E-01  0.000000E+00
  6.234331E-01 -3.563724E-02  1.000000E-01  6.297300E-01 -3.599719E-02  0.000000E+00  1.538944E-02  1.112048E-03  3.516211E-06 -1.655304E-01  0.000000E+00
  6.579636E-01 -3.306167E-02  1.000000E-01  6.646092E-01 -3.339561E-02  0.000000E+00  1.521321E-02  1.166614E-03  3.095980E-06 -1.530228E-01  0.000000E+00
  6.908098E-01 -3.047079E-02  1.000000E-01  6.977872E-01 -3.077855E-02  0.000000E+00  1.495180E-02  1.206377E-03  2.482150E-06 -1.342599E-01  0.000000E+00
  7.217456E-01 -2.792262E-02  1.000000E-01  7.290355E-01 -2.820465E-02  0.000000E+00  1.464324E-02  1.233808E-03  1.758441E-06 -1.117800E-01  0.000000E+00
  7.506093E-01 -2.544409E-02  1.000000E-01  7.581907E-01 -2.570109E-02  0.000000E+00  1.432202E-02  1.253695E-03  9.805375E-07 -8.992220E-02  0.000000E+00
  7.773052E-01 -2.306955E-02  1.000000E-01  7.851562E-01 -2.330256E-02  0.000000E+00  1.400930E-02  1.267476E-03  1.732127E-07 -7.040420E-02  0.000000E+00
  8.017969E-01 -2.082190E-02  1.000000E-01  8.098953E-01 -2.103221E-02  0.000000E+00  1.370362E-02  1.278014E-03 -6.524748E-07 -5.307904E-02  0.000000E+00
  8.240994E-01 -1.871261E-02  1.000000E-01  8.324231E-01 -1.890161E-02  0.000000E+00  1.340041E-02  1.284936E-03 -1.487728E-06 -3.681350E-02  0.000000E+00
  8.442717E-01 -1.675519E-02  1.000000E-01  8.527991E-01 -1.692442E-02  0.000000E+00  1.309898E-02  1.287070E-03 -2.321553E-06 -2.092579E-02  0.000000E+00
  8.624056E-01 -1.495497E-02  1.000000E-01  8.711162E-01 -1.510602E-02  0.000000E+00  1.279892E-02  1.285109E-03 -3.142269E-06 -5.606734E-03  0.000000E+00
  8.786176E-01 -1.331233E-02  1.000000E-01  8.874919E-01 -1.344679E-02  0.000000E+00  1.250127E-02  1.279695E-03 -3.940343E-06  8.896821E-03  0.000000E+00
  8.930402E-01 -1.182425E-02  1.000000E-01  9.020602E-01 -1.194368E-02  0.000000E+00  1.220676E-02  1.271711E-03 -4.707671E-06  2.247198E-02  0.000000E+00
  9.058145E-01 -1.048339E-02  1.000000E-01  9.149635E-01 -1.058928E-02  0.000000E+00  1.191841E-02  1.261007E-03 -5.438243E-06  3.524311E-02  0.000000E+00
  9.170854E-01 -9.283945E-03  1.000000E-01  9.263482E-01 -9.377716E-03  0.000000E+00  1.164048E-02  1.247596E-03 -6.127156E-06  4.726639E-02  0.000000E+00
  9.269957E-01 -8.216735E-03  1.000000E-01  9.363586E-01 -8.299726E-03  0.000000E+00  1.137501E-02  1.232628E-03 -6.770287E-06  5.839408E-02  0.000000E+00
  9.356835E-01 -7.271601E-03  1.000000E-01  9.451342E-01 -7.345047E-03  0.000000E+00  1.112306E-02  1.216793E-03 -7.365739E-06  6.860544E-02  0.000000E+00
  9.432796E-01 -6.437963E-03  1.000000E-01  9.528070E-01 -6.502988E-03  0.000000E+00  1.088495E-02  1.200515E-03 -7.912944E-06  7.794746E-02  0.000000E+00
  9.499058E-01 -5.705242E-03  1.000000E-01  9.595002E-01 -5.762866E-03  0.000000E+00  1.066062E-02  1.184054E-03 -8.412268E-06  8.648087E-02  0.000000E+00
  9.556744E-01 -5.063249E-03  1.000000E-01  9.653270E-01 -5.114389E-03  0.000000E+00  1.044935E-02  1.167754E-03 -8.864691E-06  9.424719E-02  0.000000E+00
  9.606875E-01 -4.502076E-03  1.000000E-01  9.703908E-01 -4.547549E-03  0.000000E+00  1.024992E-02  1.151881E-03 -9.271900E-06  1.012866E-01  0.000000E+00
  9.650374E-01 -4.012512E-03  1.000000E-01  9.747846E-01 -4.053039E-03  0.000000E+00  1.006203E-02  1.136208E-03 -9.636778E-06  1.076896E-01  0.000000E+00
  9.688070E-01 -3.586489E-03  1.000000E-01  9.785922E-01 -3.622713E-03  0.000000E+00  9.886094E-03  1.120650E-03 -9.962577E-06  1.135134E-01  0.000000E+00
  9.720698E-01 -3.216475E-03  1.000000E-01  9.818880E-01 -3.248962E-03  0.000000E+00  9.721497E-03  1.105505E-03 -1.025173E-05  1.187658E-01  0.000000E+00
  9.748912E-01 -2.895568E-03  1.000000E-01  9.847379E-01 -2.924814E-03  0.000000E+00  9.566723E-03  1.090797E-03 -1.050443E-05  1.235012E-01  0.000000E+00
  9.773289E-01 -2.617653E-03  1.000000E-01  9.872002E-01 -2.644092E-03  0.000000E+00  9.419922E-03  1.076446E-03 -1.071695E-05  1.277902E-01  0.000000E+00
  9.794334E-01 -2.377243E-03  1.000000E-01  9.893260E-01 -2.401254E-03  0.000000E+00  9.277989E-03  1.062569E-03 -1.088778E-05  1.316674E-01  0.000000E+00
  9.812492E-01 -2.169321E-03  1.000000E-01  9.911601E-01 -2.191232E-03  0.000000E+00  9.137271E-03  1.048849E-03 -1.104035E-05  1.351959E-01  0.000000E+00
  9.828149E-01 -1.989631E-03  1.000000E-01  9.927417E-01 -2.009727E-03  0.000000E+00  8.996007E-03  1.034578E-03 -1.124608E-05  1.384698E-01  0.000000E+00
  9.841645E-01 -1.834534E-03  1.000000E-01  9.941048E-01 -1.853064E-03  0.000000E+00  8.852501E-03  1.019252E-03 -1.158322E-05  1.415331E-01  0.000000E+00
  9.853271E-01 -1.700791E-03  1.000000E-01  9.952792E-01 -1.717970E-03  0.000000E+00  8.696356E-03  1.002267E-03 -1.195988E-05  1.444320E-01  0.000000E+00
  9.863285E-01 -1.585539E-03  1.000000E-01  9.962907E-01 -1.601553E-03  0.000000E+00  8.486798E-03  9.789200E-04 -1.188853E-05  1.471711E-01  0.000000E+00
  9.871906E-01 -1.486226E-03  1.000000E-01  9.971616E-01 -1.501237E-03  0.000000E+00  8.141853E-03  9.375349E-04 -1.060629E-05  1.500240E-01  0.000000E+00
  9.879327E-01 -1.400632E-03  1.000000E-01  9.979111E-01 -1.414779E-03  0.000000E+00  7.574578E-03  8.799090E-04 -7.933143E-06  1.536326E-01  0.000000E+00
  9.885713E-01 -1.326890E-03  1.000000E-01  9.985562E-01 -1.340292E-03  0.000000E+00  6.637644E-03  7.937300E-04 -5.528153E-06  1.555259E-01  0.000000E+00
  9.891208E-01 -1.263402E-03  1.000000E-01  9.991112E-01 -1.276163E-03  0.000000E+00  5.702791E-03  5.148630E-04 -7.483833E-06  1.579196E-01  0.000000E+00
  9.895934E-01 -1.208771E-03  1.000000E-01  9.995886E-01 -1.220980E-03  0.000000E+00  7.861475E-03  1.183556E-03 -1.877631E-05  1.948682E-01  0.000000E+00
  9.900000E-01 -1.161782E-03  1.000000E-01  9.999993E-01 -1.173516E-03  0.000000E+00  5.845945E-03  6.981545E-04 -4.552387E-05  1.095880E-01  0.000000E+00
  9.900000E-01 -1.958562E-10  1.000000E-01  9.999993E-01 -1.978344E-10  0.000000E+00  1.992423E-05 -1.777877E-03 -1.815650E-04  1.121062E-01  0.000000E+00
  9.900000E-01 -2.904457E-04  1.000000E-01  9.999993E-01 -2.933793E-04  0.000000E+00  7.204040E-05 -4.887157E-03 -1.745671E-04  1.167245E-01  0.000000E+00
  9.900000E-01 -5.808911E-04  1.000000E-01  9.999993E-01 -5.867583E-04  0.000000E+00 -2.733157E-04 -9.549754E-03 -1.462171E-04  1.232516E-01  0.000000E+00
  9.900000E-01 -8.713366E-04  1.000000E-01  9.999993E-01 -8.801374E-04  0.000000E+00  3.406194E-04 -6.401212E-03 -9.545214E-05  5.704619E-02  0.000000E+00
  9.900000E-01 -1.161782E-03  1.000000E-01  9.999993E-01 -1.173516E-03  0.000000E+00  5.845945E-03  6.981545E-04 -4.552387E-05  1.095880E-01  0.000000E+00
  9.900000E-01  1.161782E-03  1.000000E-01  9.999993E-01  1.173516E-03  0.000000E+00  5.602941E-04 -3.306651E-04 -1.014416E-04  1.163689E-01  0.000000E+00
  9.900000E-01  8.713362E-04  1.000000E-01  9.999993E-01  8.801370E-04  0.000000E+00  7.984323E-05  5.654510E-04 -1.187407E-04  1.032803E-01  0.000000E+00
  9.900000E-01  5.808907E-04  1.000000E-01  9.999993E-01  5.867579E-04  0.000000E+00 -4.733765E-05  1.138678E-03 -1.434307E-04  1.135213E-01  0.000000E+00
  9.900000E-01  2.904453E-04  1.000000E-01  9.999993E-01  2.933789E-04  0.000000E+00  1.691312E-06  1.466000E-05 -1.680333E-04  1.139268E-01  0.000000E+00
  3.211941E-03 -7.650942E-03  1.000000E-01  3.244382E-03 -7.728219E-03  0.000000E+00  1.363120E-02 -1.837564E-02  2.091710E-05  9.685223E-01  0.000000E+00
  3.463563E-03 -7.973729E-03  1.000000E-01  3.498546E-03 -8.054266E-03  0.000000E+00  1.618572E-02 -2.134367E-02  2.118440E-05  9.209016E-01  0.000000E+00
  3.749570E-03 -8.353978E-03  1.000000E-01  3.787442E-03 -8.438356E-03  0.000000E+00  1.737426E-02 -2.157393E-02  2.080163E-05  9.124067E-01  0.000000E+00
  4.107131E-03 -8.775499E-03  1.000000E-01  4.148615E-03 -8.864134E-03  0.000000E+00  1.758129E-02 -1.930408E-02  1.940207E-05  8.683987E-01  0.000000E+00
  4.560044E-03 -9.231632E-03  1.000000E-01  4.606102E-03 -9.324874E-03  0.000000E+00  1.655667E-02 -1.690021E-02  1.813081E-05  8.476303E-01  0.000000E+00
  5.080269E-03 -9.767612E-03  1.000000E-01  5.131581E-03 -9.866267E-03  0.000000E+00  1.660735E-02 -1.707404E-02  1.729902E-05  8.419339E-01  0.000000E+00
  5.683442E-03 -1.039146E-02  1.000000E-01  5.740846E-03 -1.049641E-02  0.000000E+00  1.794987E-02 -1.776421E-02  1.653145E-05  7.968366E-01  0.000000E+00
  6.412786E-03 -1.108654E-02  1.000000E-01  6.477558E-03 -1.119852E-02  0.000000E+00  1.887605E-02 -1.704082E-02  1.585887E-05  7.297084E-01  0.000000E+00
  7.305264E-03 -1.184338E-02  1.000000E-01  7.379050E-03 -1.196300E-02  0.000000E+00  1.950119E-02 -1.654504E-02  1.552732E-05  6.922147E-01  0.000000E+00
  8.339908E-03 -1.272331E-02  1.000000E-01  8.424143E-03 -1.285182E-02  0.000000E+00  2.065791E-02 -1.659348E-02  1.527160E-05  6.464579E-01  0.000000E+00
  9.591555E-03 -1.367994E-02  1.000000E-01  9.688432E-03 -1.381811E-02  0.000000E+00  2.191776E-02 -1.614359E-02  1.496822E-05  5.716061E-01  0.000000E+00
  1.108295E-02 -1.473587E-02  1.000000E-01  1.119489E-02 -1.488471E-02  0.000000E+00  2.307981E-02 -1.568265E-02  1.488341E-05  5.080602E-01  0.000000E+00
  1.285416E-02 -1.589427E-02  1.000000E-01  1.298399E-02 -1.605481E-02  0.000000E+00  2.422839E-02 -1.503235E-02  1.490928E-05  4.391454E-01  0.000000E+00
  1.496602E-02 -1.714233E-02  1.000000E-01  1.511718E-02 -1.731547E-02  0.000000E+00  2.495735E-02 -1.380288E-02  1.499347E-05  3.597297E-01  0.000000E+00
  1.748870E-02 -1.844255E-02  1.000000E-01  1.766535E-02 -1.862883E-02  0.000000E+00  2.536068E-02 -1.249327E-02  1.526792E-05  2.972914E-01  0.000000E+00
  2.045806E-02 -1.984213E-02  1.000000E-01  2.066469E-02 -2.004254E-02  0.000000E+00  2.552918E-02 -1.116863E-02  1.560395E-05  2.444847E-01  0.000000E+00
  2.397331E-02 -2.126642E-02  1.000000E-01  2.421545E-02 -2.148122E-02  0.000000E+00  2.563054E-02 -9.940517E-03  1.594645E-05  1.992499E-01  0.000000E+00
  2.807765E-02 -2.278547E-02  1.000000E-01  2.836124E-02 -2.301561E-02  0.000000E+00  2.619595E-02 -9.338319E-03  1.635204E-05  1.730656E-01  0.000000E+00
  3.284502E-02 -2.443053E-02  1.000000E-01  3.317677E-02 -2.467729E-02  0.000000E+00  2.705384E-02 -8.952527E-03  1.658228E-05  1.356662E-01  0.000000E+00
  3.837370E-02 -2.619318E-02  1.000000E-01  3.876128E-02 -2.645774E-02  0.000000E+00  2.783518E-02 -8.463739E-03  1.660752E-05  8.130775E-02  0.000000E+00
  4.477379E-02 -2.805386E-02  1.000000E-01  4.522602E-02 -2.833721E-02  0.000000E+00  2.836044E-02 -7.817853E-03  1.652113E-05  2.050924E-02  0.000000E+00
  5.216446E-02 -2.998918E-02  1.000000E-01  5.269134E-02 -3.029208E-02  0.000000E+00  2.856228E-02 -7.034443E-03  1.637814E-05 -3.852773E-02  0.000000E+00
  6.067607E-02 -3.196244E-02  1.000000E-01  6.128892E-02 -3.228527E-02  0.000000E+00  2.848310E-02 -6.188503E-03  1.620921E-05 -9.089033E-02  0.000000E+00
  7.044130E-02 -3.395130E-02  1.000000E-01  7.115278E-02 -3.429422E-02  0.000000E+00  2.827730E-02 -5.393208E-03  1.604554E-05 -1.343379E-01  0.000000E+00
  8.159717E-02 -3.594445E-02  1.000000E-01  8.242132E-02 -3.630750E-02  0.000000E+00  2.810898E-02 -4.724361E-03  1.589754E-05 -1.705701E-01  0.000000E+00
  9.428087E-02 -3.795670E-02  1.000000E-01  9.523314E-02 -3.834007E-02  0.000000E+00  2.795738E-02 -4.127926E-03  1.571830E-05 -2.067918E-01  0.000000E+00
  3.211941E-03  7.650930E-03  1.000000E-01  3.244382E-03  7.728207E-03  0.000000E+00  2.494167E-02  3.339392E-02  1.993873E-05  5.557848E-01  0.000000E+00
  1.980495E-03  5.938125E-03  1.000000E-01  2.000498E-03  5.998102E-03  0.000000E+00  1.775441E-02  2.756847E-02  1.886784E-05  6.872329E-01  0.000000E+00
  9.576667E-04  4.090284E-03  1.000000E-01  9.673395E-04  4.131597E-03  0.000000E+00  1.064542E-02  2.315757E-02  1.774080E-05  8.374230E-01  0.000000E+00
  2.604368E-04  2.095655E-03  1.000000E-01  2.630673E-04  2.116821E-03  0.000000E+00  4.598186E-03  1.792687E-02  1.756711E-05  1.006488E+00  0.000000E+00
  0.000000E+00  0.000000E+00  1.000000E-01  0.000000E+00  0.000000E+00  0.000000E+00  5.737083E-04  1.035501E-02  1.798188E-05  1.139862E+00  0.000000E+00
  2.604485E-04 -2.095654E-03  1.000000E-01  2.630791E-04 -2.116821E-03  0.000000E+00  1.926953E-04  1.400728E-03  1.847892E-05  1.180514E+00  0.000000E+00
  9.576726E-04 -4.090288E-03  1.000000E-01  9.673454E-04 -4.131601E-03  0.000000E+00  3.390675E-03 -6.742286E-03  1.912319E-05  1.136072E+00  0.000000E+00
  1.980498E-03 -5.938132E-03  1.000000E-01  2.000502E-03 -5.998109E-03  0.000000E+00  8.631597E-03 -1.317951E-02  2.018400E-05  1.061814E+00  0.000000E+00
  3.211941E-03 -7.650942E-03  1.000000E-01  3.244382E-03 -7.728219E-03  0.000000E+00  1.363120E-02 -1.837564E-02  2.091710E-05  9.685223E-01  0.000000E+00
  8.930402E-01  1.182425E-02  1.000000E-01  9.020602E-01  1.194368E-02  0.000000E+00 -1.652977E-03  1.720141E-04 -7.661354E-05  4.125582E-02  0.000000E+00
  8.786176E-01  1.331233E-02  1.000000E-01  8.874919E-01  1.344679E-02  0.000000E+00 -1.788056E-03  1.827981E-04 -7.647670E-05  2.657891E-02  0.000000E+00
  8.624056E-01  1.495497E-02  1.000000E-01  8.711162E-01  1.510602E-02  0.000000E+00 -1.971748E-03  1.977128E-04 -7.656462E-05  9.014926E-03  0.000000E+00
  8.442717E-01  1.675519E-02  1.000000E-01  8.527991E-01  1.692442E-02  0.000000E+00 -2.223228E-03  2.181399E-04 -7.681999E-05 -1.206939E-02  0.000000E+00
  8.240994E-01  1.871261E-02  1.000000E-01  8.324231E-01  1.890161E-02  0.000000E+00 -2.561460E-03  2.451979E-04 -7.697471E-05 -3.746912E-02  0.000000E+00
  8.017969E-01  2.082190E-02  1.000000E-01  8.098953E-01  2.103221E-02  0.000000E+00 -2.989712E-03  2.777709E-04 -7.640513E-05 -6.823387E-02  0.000000E+00
  7.773052E-01  2.306955E-02  1.000000E-01  7.851562E-01  2.330256E-02  0.000000E+00 -3.470580E-03  3.119628E-04 -7.407276E-05 -1.055607E-01  0.000000E+00
  7.506093E-01  2.544409E-02  1.000000E-01  7.581907E-01  2.570109E-02  0.000000E+00 -3.911313E-03  3.410575E-04 -6.881974E-05 -1.492471E-01  0.000000E+00
  7.217456E-01  2.792262E-02  1.000000E-01  7.290355E-01  2.820465E-02  0.000000E+00 -4.187613E-03  3.558827E-04 -6.019035E-05 -1.951987E-01  0.000000E+00
  6.908098E-01  3.047079E-02  1.000000E-01  6.977872E-01  3.077855E-02  0.000000E+00 -4.181373E-03  3.429728E-04 -4.922445E-05 -2.387677E-01  0.000000E+00
  6.579636E-01  3.306167E-02  1.000000E-01  6.646092E-01  3.339560E-02  0.000000E+00 -3.715020E-03  2.809445E-04 -3.790481E-05 -2.907828E-01  0.000000E+00
  6.234331E-01  3.563724E-02  1.000000E-01  6.297300E-01  3.599719E-02  0.000000E+00 -2.316603E-03  1.507041E-04 -2.735386E-05 -3.865780E-01  0.000000E+00
  5.875104E-01  3.815390E-02  1.000000E-01  5.934444E-01  3.853927E-02  0.000000E+00  9.261717E-04 -6.648211E-05 -1.726117E-05 -5.484666E-01  0.000000E+00
  5.505429E-01  4.054929E-02  1.000000E-01  5.561035E-01  4.095885E-02  0.000000E+00  6.876343E-03 -3.975725E-04 -7.296879E-06 -7.349721E-01  0.000000E+00
  5.129234E-01  4.276102E-02  1.000000E-01  5.181041E-01  4.319292E-02  0.000000E+00  1.479863E-02 -7.878084E-04  1.535746E-06 -8.712441E-01  0.000000E+00
  4.750746E-01  4.474197E-02  1.000000E-01  4.798730E-01  4.519387E-02  0.000000E+00  2.161486E-02 -1.038845E-03  7.192473E-06 -9.281319E-01  0.000000E+00
  4.374288E-01  4.643475E-02  1.000000E-01  4.418470E-01  4.690375E-02  0.000000E+00  2.490999E-02 -1.022204E-03  8.999592E-06 -9.321724E-01  0.000000E+00
  4.004098E-01  4.779019E-02  1.000000E-01  4.044540E-01  4.827289E-02  0.000000E+00  2.534511E-02 -8.186128E-04  8.599868E-06 -9.173142E-01  0.000000E+00
  3.644140E-01  4.877245E-02  1.000000E-01  3.680947E-01  4.926507E-02  0.000000E+00  2.486233E-02 -5.557740E-04  7.918518E-06 -8.993546E-01  0.000000E+00
  3.297948E-01  4.936164E-02  1.000000E-01  3.331258E-01  4.986021E-02  0.000000E+00  2.464800E-02 -2.843589E-04  7.786013E-06 -8.816457E-01  0.000000E+00
  2.968495E-01  4.955608E-02  1.000000E-01  2.998477E-01  5.005661E-02  0.000000E+00  2.491081E-02  3.896273E-06  8.155768E-06 -8.635706E-01  0.000000E+00
  2.658122E-01  4.936250E-02  1.000000E-01  2.684970E-01  4.986108E-02  0.000000E+00  2.545579E-02  3.267333E-04  8.738238E-06 -8.441427E-01  0.000000E+00
  2.368507E-01  4.879808E-02  1.000000E-01  2.392430E-01  4.929096E-02  0.000000E+00  2.607569E-02  6.874191E-04  9.336305E-06 -8.233129E-01  0.000000E+00
  2.100672E-01  4.790620E-02  1.000000E-01  2.121890E-01  4.839006E-02  0.000000E+00  2.669697E-02  1.093167E-03  9.893791E-06 -8.007325E-01  0.000000E+00
  1.855049E-01  4.670850E-02  1.000000E-01  1.873785E-01  4.718027E-02  0.000000E+00  2.729469E-02  1.537271E-03  1.041579E-05 -7.770714E-01  0.000000E+00
  1.631517E-01  4.527479E-02  1.000000E-01  1.647996E-01  4.573208E-02  0.000000E+00  2.788586E-02  2.022236E-03  1.092100E-05 -7.525334E-01  0.000000E+00
  1.429542E-01  4.363356E-02  1.000000E-01  1.443980E-01  4.407427E-02  0.000000E+00  2.848450E-02  2.550975E-03  1.141795E-05 -7.271378E-01  0.000000E+00
  1.248211E-01  4.185241E-02  1.000000E-01  1.260818E-01  4.227514E-02  0.000000E+00  2.912441E-02  3.148329E-03  1.191565E-05 -6.996128E-01  0.000000E+00
  1.086418E-01  3.993620E-02  1.000000E-01  1.097391E-01  4.033957E-02  0.000000E+00  2.977033E-02  3.803588E-03  1.239848E-05 -6.706947E-01  0.000000E+00
  9.428087E-02  3.795669E-02  1.000000E-01  9.523313E-02  3.834007E-02  0.000000E+00  3.036954E-02  4.488188E-03  1.284224E-05 -6.423566E-01  0.000000E+00
  8.159716E-02  3.594445E-02  1.000000E-01  8.242132E-02  3.630750E-02  0.000000E+00  3.093876E-02  5.204262E-03  1.324853E-05 -6.140428E-01  0.000000E+00
  7.044129E-02  3.395129E-02  1.000000E-01  7.115277E-02  3.429421E-02  0.000000E+00  3.154570E-02  6.020922E-03  1.366488E-05 -5.801331E-01  0.000000E+00
  6.067607E-02  3.196243E-02  1.000000E-01  6.128891E-02  3.228527E-02  0.000000E+00  3.215578E-02  6.988734E-03  1.413613E-05 -5.342072E-01  0.000000E+00
  5.216446E-02  2.998918E-02  1.000000E-01  5.269134E-02  3.029208E-02  0.000000E+00  3.251609E-02  8.007557E-03  1.462882E-05 -4.783164E-01  0.000000E+00
  4.477379E-02  2.805386E-02  1.000000E-01  4.522602E-02  2.833721E-02  0.000000E+00  3.244764E-02  8.940227E-03  1.507283E-05 -4.207745E-01  0.000000E+00
  3.837369E-02  2.619317E-02  1.000000E-01  3.876128E-02  2.645773E-02  0.000000E+00  3.197452E-02  9.714877E-03  1.539082E-05 -3.728638E-01  0.000000E+00
  3.284502E-02  2.443053E-02  1.000000E-01  3.317677E-02  2.467728E-02  0.000000E+00  3.131198E-02  1.035480E-02  1.549673E-05 -3.456136E-01  0.000000E+00
  2.807765E-02  2.278547E-02  1.000000E-01  2.836124E-02  2.301561E-02  0.000000E+00  3.085734E-02  1.100105E-02  1.532948E-05 -3.442133E-01  0.000000E+00
  2.397330E-02  2.126642E-02  1.000000E-01  2.421544E-02  2.148122E-02  0.000000E+00  3.123174E-02  1.212816E-02  1.503544E-05 -3.505427E-01  0.000000E+00
  2.045805E-02  1.984213E-02  1.000000E-01  2.066468E-02  2.004254E-02  0.000000E+00  3.260279E-02  1.428702E-02  1.495692E-05 -3.239467E-01  0.000000E+00
  1.748870E-02  1.844255E-02  1.000000E-01  1.766534E-02  1.862882E-02  0.000000E+00  3.368863E-02  1.660077E-02  1.495228E-05 -2.746002E-01  0.000000E+00
  1.496601E-02  1.714232E-02  1.000000E-01  1.511717E-02  1.731546E-02  0.000000E+00  3.402261E-02  1.882289E-02  1.498933E-05 -2.037053E-01  0.000000E+00
  1.285416E-02  1.589426E-02  1.000000E-01  1.298399E-02  1.605480E-02  0.000000E+00  3.355332E-02  2.081253E-02  1.512246E-05 -1.095269E-01  0.000000E+00
  1.108295E-02  1.473586E-02  1.000000E-01  1.119489E-02  1.488470E-02  0.000000E+00  3.212144E-02  2.181989E-02  1.512823E-05 -2.558813E-02  0.000000E+00
  9.591550E-03  1.367993E-02  1.000000E-01  9.688428E-03  1.381810E-02  0.000000E+00  3.053458E-02  2.248421E-02  1.512210E-05  5.254616E-02  0.000000E+00
  8.339904E-03  1.272330E-02  1.000000E-01  8.424140E-03  1.285181E-02  0.000000E+00  2.895417E-02  2.324551E-02  1.529510E-05  1.408196E-01  0.000000E+00
  7.305264E-03  1.184337E-02  1.000000E-01  7.379049E-03  1.196299E-02  0.000000E+00  2.757466E-02  2.339491E-02  1.528814E-05  1.891173E-01  0.000000E+00
  6.412788E-03  1.108653E-02  1.000000E-01  6.477559E-03  1.119851E-02  0.000000E+00  2.715644E-02  2.455300E-02  1.537869E-05  2.350122E-01  0.000000E+00
  5.683444E-03  1.039144E-02  1.000000E-01  5.740848E-03  1.049640E-02  0.000000E+00  2.621500E-02  2.592161E-02  1.596399E-05  3.287380E-01  0.000000E+00
  5.080271E-03  9.767598E-03  1.000000E-01  5.131584E-03  9.866254E-03  0.000000E+00  2.400684E-02  2.463694E-02  1.646724E-05  3.853633E-01  0.000000E+00
  4.560047E-03  9.231618E-03  1.000000E-01  4.606105E-03  9.324860E-03  0.000000E+00  2.408388E-02  2.458088E-02  1.680431E-05  3.736941E-01  0.000000E+00
  4.107134E-03  8.775485E-03  1.000000E-01  4.148617E-03  8.864120E-03  0.000000E+00  2.754833E-02  3.037467E-02  1.787324E-05  3.866037E-01  0.000000E+00
  3.749572E-03  8.353965E-03  1.000000E-01  3.787444E-03  8.438343E-03  0.000000E+00  2.984313E-02  3.720283E-02  1.954086E-05  4.490578E-01  0.000000E+00
  3.463564E-03  7.973717E-03  1.000000E-01  3.498547E-03  8.054254E-03  0.000000E+00  2.909693E-02  3.815778E-02  2.025606E-05  4.839645E-01  0.000000E+00
  3.211941E-03  7.650930E-03  1.000000E-01  3.244382E-03  7.728207E-03  0.000000E+00  2.494167E-02  3.339392E-02  1.993873E-05  5.557848E-01  0.000000E+00
  9.900000E-01  1.161782E-03  1.000000E-01  9.999993E-01  1.173516E-03  0.000000E+00  5.602941E-04 -3.306651E-04 -1.014416E-04  1.163689E-01  0.000000E+00
  9.895934E-01  1.208771E-03  1.000000E-01  9.995886E-01  1.220980E-03  0.000000E+00  2.395225E-04 -8.652658E-05 -9.086103E-05  1.298063E-01  0.000000E+00
  9.891208E-01  1.263402E-03  1.000000E-01  9.991112E-01  1.276163E-03  0.000000E+00 -3.513323E-04  8.028581E-05 -8.496525E-05  1.205973E-01  0.000000E+00
  9.885713E-01  1.326890E-03  1.000000E-01  9.985562E-01  1.340292E-03  0.000000E+00 -2.880958E-04  2.718880E-05 -8.385084E-05  1.209824E-01  0.000000E+00
  9.879327E-01  1.400633E-03  1.000000E-01  9.979111E-01  1.414779E-03  0.000000E+00 -2.902466E-04  3.135509E-05 -8.462172E-05  1.216742E-01  0.000000E+00
  9.871906E-01  1.486226E-03  1.000000E-01  9.971616E-01  1.501237E-03  0.000000E+00 -3.795093E-04  4.491212E-05 -8.564172E-05  1.211901E-01  0.000000E+00
  9.863285E-01  1.585538E-03  1.000000E-01  9.962907E-01  1.601553E-03  0.000000E+00 -4.838010E-04  5.587092E-05 -8.628956E-05  1.206805E-01  0.000000E+00
  9.853271E-01  1.700790E-03  1.000000E-01  9.952792E-01  1.717969E-03  0.000000E+00 -5.948627E-04  6.849108E-05 -8.639015E-05  1.200594E-01  0.000000E+00
  9.841645E-01  1.834533E-03  1.000000E-01  9.941048E-01  1.853062E-03  0.000000E+00 -7.042082E-04  8.106770E-05 -8.601562E-05  1.192449E-01  0.000000E+00
  9.828149E-01  1.989630E-03  1.000000E-01  9.927417E-01  2.009726E-03  0.000000E+00 -8.047127E-04  9.247295E-05 -8.533131E-05  1.182515E-01  0.000000E+00
  9.812492E-01  2.169321E-03  1.000000E-01  9.911601E-01  2.191232E-03  0.000000E+00 -8.940777E-04  1.025192E-04 -8.450369E-05  1.170626E-01  0.000000E+00
  9.794334E-01  2.377243E-03  1.000000E-01  9.893260E-01  2.401254E-03  0.000000E+00 -9.722603E-04  1.112121E-04 -8.365988E-05  1.156519E-01  0.000000E+00
  9.773289E-01  2.617653E-03  1.000000E-01  9.872002E-01  2.644092E-03  0.000000E+00 -1.039994E-03  1.186906E-04 -8.287611E-05  1.139936E-01  0.000000E+00
  9.748912E-01  2.895568E-03  1.000000E-01  9.847379E-01  2.924814E-03  0.000000E+00 -1.098193E-03  1.250545E-04 -8.218441E-05  1.120579E-01  0.000000E+00
  9.720698E-01  3.216475E-03  1.000000E-01  9.818880E-01  3.248963E-03  0.000000E+00 -1.147737E-03  1.303463E-04 -8.158693E-05  1.098098E-01  0.000000E+00
  9.688070E-01  3.586489E-03  1.000000E-01  9.785922E-01  3.622713E-03  0.000000E+00 -1.189563E-03  1.346666E-04 -8.106926E-05  1.072077E-01  0.000000E+00
  9.650374E-01  4.012511E-03  1.000000E-01  9.747846E-01  4.053039E-03  0.000000E+00 -1.224862E-03  1.381381E-04 -8.060937E-05  1.042003E-01  0.000000E+00
  9.606875E-01  4.502076E-03  1.000000E-01  9.703908E-01  4.547549E-03  0.000000E+00 -1.255226E-03  1.408877E-04 -8.018261E-05  1.007239E-01  0.000000E+00
  9.556744E-01  5.063249E-03  1.000000E-01  9.653270E-01  5.114389E-03  0.000000E+00 -1.282682E-03  1.431665E-04 -7.976475E-05  9.669865E-02  0.000000E+00
  9.499058E-01  5.705241E-03  1.000000E-01  9.595002E-01  5.762866E-03  0.000000E+00 -1.309694E-03  1.452914E-04 -7.933484E-05  9.202503E-02  0.000000E+00
  9.432796E-01  6.437962E-03  1.000000E-01  9.528070E-01  6.502987E-03  0.000000E+00 -1.339137E-03  1.475242E-04 -7.887841E-05  8.658124E-02  0.000000E+00
  9.356835E-01  7.271600E-03  1.000000E-01  9.451342E-01  7.345045E-03  0.000000E+00 -1.374259E-03  1.501648E-04 -7.839115E-05  8.021825E-02  0.000000E+00
  9.269957E-01  8.216734E-03  1.000000E-01  9.363586E-01  8.299726E-03  0.000000E+00 -1.418659E-03  1.535547E-04 -7.788318E-05  7.275396E-02  0.000000E+00
  9.170854E-01  9.283944E-03  1.000000E-01  9.263482E-01  9.377715E-03  0.000000E+00 -1.476382E-03  1.580515E-04 -7.738267E-05  6.396359E-02  0.000000E+00
  9.058145E-01  1.048339E-02  1.000000E-01  9.149635E-01  1.058928E-02  0.000000E+00 -1.552288E-03  1.640707E-04 -7.693778E-05  5.357394E-02  0.000000E+00
  8.930402E-01  1.182425E-02  1.000000E-01  9.020602E-01  1.194368E-02  0.000000E+00 -1.652977E-03  1.720141E-04 -7.661354E-05  4.125582E-02  0.000000E+00
    1    2
    2    3
    3    4
    4    5
    5    6
    6    7
    7    8
    8    9
    9   10
   10   11
   11   12
   12   13
   13   14
   14   15
   15   16
   16   17
   17   18
   18   19
   19   20
   20   21
   21   22
   22   23
   23   24
   24   25
   25   26
   26   27
   27   28
   28   29
   29   30
   30   31
   31   32
   32   33
   33   34
   34   35
   35   36
   36   37
   37   38
   38   39
   39   40
   40   41
   41   42
   42   43
   43   44
   44   45
   45   46
   46   47
   47   48
   48   49
   49   50
   50   51
   51   52
   52   53
   53   54
   54   55
   56   57
   57   58
   58   59
   59   60
   61   62
   62   63
   63   64
   64   56
   65   66
   66   67
   67   68
   68   69
   69   70
   70   71
   71   72
   72   73
   73   74
   74   75
   75   76
   76   77
   77   78
   78   79
   79   80
   80   81
   81   82
   82   83
   83   84
   84   85
   85   86
   86   87
   87   88
   88   89
   89   90
   91   92
   92   93
   93   94
   94   95
   95   96
   96   97
   97   98
   98   99
  100  101
  101  102
  102  103
  103  104
  104  105
  105  106
  106  107
  107  108
  108  109
  109  110
  110  111
  111  112
  112  113
  113  114
  114  115
  115  116
  116  117
  117  118
  118  119
  119  120
  120  121
  121  122
  122  123
  123  124
  124  125
  125  126
  126  127
  127  128
  128  129
  129  130
  130  131
  131  132
  132  133
  133  134
  134  135
  135  136
  136  137
  137  138
  138  139
  139  140
  140  141
  141  142
  142  143
  143  144
  144  145
  145  146
  146  147
  147  148
  148  149
  149  150
  150  151
  151  152
  152  153
  153  154
  155  156
  156  157
  157  158
  158  159
  159  160
  160  161
  161  162
  162  163
  163  164
  164  165
  165  166
  166  167
  167  168