 Title = "ADflow Slice Data"
Variables =  "CoordinateX"  "CoordinateY"  "CoordinateZ"  "XoC"  "YoC"  "ZoC" "VelocityX" "VelocityY" "VelocityZ" "CoefPressure" "Mach" 
Zone T= "Slice_0001 None Absolute Regular z = 0.50000000"
 Nodes =          192  Elements=          184  ZONETYPE=FELINESEG
 DATAPACKING=POINT
  5.667600E-01 -1.507606E-02  5.000000E-01  5.724853E-01 -1.519020E-02  0.000000E+00  1.346711E-02  1.521470E-03 -4.787297E-19  9.983392E-02  0.000000E+00
  5.873410E-01 -1.273509E-02  5.000000E-01  5.932741E-01 -1.282559E-02  0.000000E+00  1.296821E-02  1.475257E-03 -1.781640E-19  1.221760E-01  0.000000E+00
  6.076580E-01 -1.042364E-02  5.000000E-01  6.137963E-01 -1.049080E-02  0.000000E+00  1.252364E-02  1.416775E-03 -2.149607E-19  1.438464E-01  0.000000E+00
  6.276600E-01 -8.174511E-03  5.000000E-01  6.340003E-01 -8.218953E-03  0.000000E+00  1.213395E-02  1.350615E-03  2.275960E-19  1.640488E-01  0.000000E+00
  6.472970E-01 -6.012402E-03  5.000000E-01  6.538356E-01 -6.035009E-03  0.000000E+00  1.179146E-02  1.282088E-03  6.035332E-19  1.823360E-01  0.000000E+00
  6.665260E-01 -3.949383E-03  5.000000E-01  6.732588E-01 -3.951156E-03  0.000000E+00  1.148722E-02  1.213920E-03 -1.288817E-18  1.989138E-01  0.000000E+00
  6.853050E-01 -1.995570E-03  5.000000E-01  6.922274E-01 -1.977612E-03  0.000000E+00  1.121636E-02  1.143570E-03 -2.208239E-18  2.145929E-01  0.000000E+00
  7.035980E-01 -1.690120E-04  5.000000E-01  7.107052E-01 -1.326076E-04  0.000000E+00  1.096981E-02  1.068427E-03 -3.278855E-19  2.296981E-01  0.000000E+00
  7.213750E-01  1.517533E-03  5.000000E-01  7.286617E-01  1.570970E-03  0.000000E+00  1.072550E-02  9.890052E-04  8.655497E-19  2.438496E-01  0.000000E+00
  7.386080E-01  3.059110E-03  5.000000E-01  7.460687E-01  3.128114E-03  0.000000E+00  1.045476E-02  9.075359E-04  2.843123E-19  2.569336E-01  0.000000E+00
  7.552750E-01  4.460308E-03  5.000000E-01  7.629040E-01  4.543463E-03  0.000000E+00  1.013960E-02  8.283459E-04 -6.369552E-19  2.693624E-01  0.000000E+00
  7.713580E-01  5.733614E-03  5.000000E-01  7.791495E-01  5.829628E-03  0.000000E+00  9.792721E-03  7.533080E-04 -1.659899E-18  2.816920E-01  0.000000E+00
  7.868410E-01  6.889791E-03  5.000000E-01  7.947888E-01  6.997481E-03  0.000000E+00  9.480860E-03  6.651748E-04 -1.345615E-18  2.956483E-01  0.000000E+00
  8.017160E-01  7.868851E-03  5.000000E-01  8.098140E-01  7.986429E-03  0.000000E+00  9.304764E-03  5.411298E-04  6.312700E-19  3.115730E-01  0.000000E+00
  8.159740E-01  8.587540E-03  5.000000E-01  8.242160E-01  8.712375E-03  0.000000E+00  9.327679E-03  3.866131E-04  1.887981E-18  3.245090E-01  0.000000E+00
  8.296120E-01  9.028318E-03  5.000000E-01  8.379918E-01  9.157605E-03  0.000000E+00  9.553099E-03  2.192227E-04  2.491990E-18  3.296007E-01  0.000000E+00
  8.426300E-01  9.207526E-03  5.000000E-01  8.511412E-01  9.338623E-03  0.000000E+00  9.957435E-03  4.573057E-05  1.642178E-18  3.267976E-01  0.000000E+00
  8.550290E-01  9.156590E-03  5.000000E-01  8.636654E-01  9.287173E-03  0.000000E+00  1.051233E-02 -1.328895E-04  6.670064E-19  3.180867E-01  0.000000E+00
  8.668160E-01  8.913278E-03  5.000000E-01  8.755715E-01  9.041404E-03  0.000000E+00  1.118881E-02 -3.155043E-04  8.818223E-19  3.048184E-01  0.000000E+00
  8.779950E-01  8.518880E-03  5.000000E-01  8.868634E-01  8.643022E-03  0.000000E+00  1.195700E-02 -4.995620E-04  8.034210E-19  2.875548E-01  0.000000E+00
  8.885730E-01  8.012687E-03  5.000000E-01  8.975482E-01  8.131717E-03  0.000000E+00  1.278762E-02 -6.824871E-04  1.014505E-18  2.668854E-01  0.000000E+00
  8.985610E-01  7.428084E-03  5.000000E-01  9.076371E-01  7.541211E-03  0.000000E+00  1.364806E-02 -8.575314E-04  2.119820E-18  2.433317E-01  0.000000E+00
  9.079670E-01  6.798854E-03  5.000000E-01  9.171381E-01  6.905626E-03  0.000000E+00  1.449904E-02 -1.012326E-03  2.599236E-18  2.173552E-01  0.000000E+00
  9.168010E-01  6.157511E-03  5.000000E-01  9.260613E-01  6.257806E-03  0.000000E+00  1.530295E-02 -1.137726E-03  1.126100E-18  1.900130E-01  0.000000E+00
  9.168010E-01  6.157511E-03  5.000000E-01  9.260613E-01  6.257806E-03  0.000000E+00  1.530295E-02 -1.137726E-03  1.126100E-18  1.900130E-01  0.000000E+00
  9.250730E-01  5.528865E-03  5.000000E-01  9.344168E-01  5.622812E-03  0.000000E+00  1.603661E-02 -1.234963E-03  6.767759E-19  1.628293E-01  0.000000E+00
  9.327940E-01  4.927159E-03  5.000000E-01  9.422158E-01  5.015029E-03  0.000000E+00  1.669952E-02 -1.315738E-03 -7.857236E-20  1.371183E-01  0.000000E+00
  9.399760E-01  4.355673E-03  5.000000E-01  9.494703E-01  4.437772E-03  0.000000E+00  1.730792E-02 -1.391590E-03 -2.635276E-19  1.131491E-01  0.000000E+00
  9.466320E-01  3.815112E-03  5.000000E-01  9.561935E-01  3.891752E-03  0.000000E+00  1.788197E-02 -1.467049E-03  1.725117E-18  9.018466E-02  0.000000E+00
  9.527730E-01  3.306299E-03  5.000000E-01  9.623966E-01  3.377800E-03  0.000000E+00  1.844635E-02 -1.548611E-03  3.240499E-18  6.768551E-02  0.000000E+00
  9.584110E-01  2.827096E-03  5.000000E-01  9.680915E-01  2.893757E-03  0.000000E+00  1.903375E-02 -1.646922E-03  3.120127E-18  4.541915E-02  0.000000E+00
  9.635570E-01  2.374270E-03  5.000000E-01  9.732895E-01  2.436358E-03  0.000000E+00  1.967808E-02 -1.767865E-03 -5.558514E-18  2.266759E-02  0.000000E+00
  9.682220E-01  1.946753E-03  5.000000E-01  9.780016E-01  2.004525E-03  0.000000E+00  2.041148E-02 -1.912073E-03 -2.331277E-17 -1.658096E-03  0.000000E+00
  9.724140E-01  1.545827E-03  5.000000E-01  9.822359E-01  1.599549E-03  0.000000E+00  2.128196E-02 -2.087555E-03 -2.564876E-17 -2.818867E-02  0.000000E+00
  9.761430E-01  1.171414E-03  5.000000E-01  9.860026E-01  1.221356E-03  0.000000E+00  2.237165E-02 -2.311471E-03  4.966244E-17 -5.737635E-02  0.000000E+00
  9.794160E-01  8.242502E-04  5.000000E-01  9.893086E-01  8.706855E-04  0.000000E+00  2.378258E-02 -2.597243E-03  2.373092E-16 -9.030216E-02  0.000000E+00
  9.822400E-01  5.074139E-04  5.000000E-01  9.921611E-01  5.506495E-04  0.000000E+00  2.556563E-02 -2.947064E-03  3.220998E-16 -1.284190E-01  0.000000E+00
  9.846200E-01  2.260537E-04  5.000000E-01  9.945652E-01  2.664478E-04  0.000000E+00  2.758975E-02 -3.347710E-03 -3.746302E-16 -1.720756E-01  0.000000E+00
  9.865620E-01 -1.454406E-05  5.000000E-01  9.965268E-01  2.342031E-05  0.000000E+00  2.940848E-02 -3.711387E-03 -2.494910E-15 -2.193810E-01  0.000000E+00
  9.880680E-01 -2.086114E-04  5.000000E-01  9.980480E-01 -1.726069E-04  0.000000E+00  2.987399E-02 -3.826438E-03 -4.386200E-15 -2.765858E-01  0.000000E+00
  9.891420E-01 -3.514274E-04  5.000000E-01  9.991328E-01 -3.168652E-04  0.000000E+00  2.812616E-02 -3.910786E-03  1.459763E-15 -3.434635E-01  0.000000E+00
  9.897860E-01 -4.389510E-04  5.000000E-01  9.997833E-01 -4.052727E-04  0.000000E+00  3.788297E-02 -4.012855E-03  2.487208E-14 -2.893471E-01  0.000000E+00
  9.900000E-01 -4.683042E-04  5.000000E-01  9.999995E-01 -4.349223E-04  0.000000E+00  2.618638E-02  5.267692E-03  2.269711E-14 -5.819588E-01  0.000000E+00
  9.900000E-01 -1.843773E-04  5.000000E-01  9.999995E-01 -1.481280E-04  0.000000E+00  1.229618E-03 -7.884908E-03  3.201532E-15 -8.087457E-01  0.000000E+00
  9.900000E-01  9.954969E-05  5.000000E-01  9.999995E-01  1.386663E-04  0.000000E+00 -4.468530E-04 -2.274812E-02  3.062036E-15 -6.282990E-01  0.000000E+00
  9.900000E-01  3.834767E-04  5.000000E-01  9.999995E-01  4.254606E-04  0.000000E+00 -1.435650E-04 -8.863366E-03  3.217649E-15 -6.282577E-01  0.000000E+00
  9.900000E-01  6.674036E-04  5.000000E-01  9.999995E-01  7.122549E-04  0.000000E+00  4.646185E-04 -5.230365E-03  3.349345E-15 -6.881328E-01  0.000000E+00
  9.900000E-01  9.513306E-04  5.000000E-01  9.999995E-01  9.990492E-04  0.000000E+00  6.796603E-03 -6.632115E-03  3.445752E-15 -6.298826E-01  0.000000E+00
  9.900000E-01  9.513306E-04  5.000000E-01  9.999995E-01  9.990492E-04  0.000000E+00  6.796603E-03 -6.632115E-03  3.445752E-15 -6.298826E-01  0.000000E+00
  9.897890E-01  1.017902E-03  5.000000E-01  9.997864E-01  1.066293E-03  0.000000E+00  9.014606E-03 -3.469157E-03  3.015368E-15 -5.523264E-01  0.000000E+00
  9.891540E-01  1.218671E-03  5.000000E-01  9.991450E-01  1.269089E-03  0.000000E+00  4.566763E-03 -1.350959E-03  1.965455E-15 -5.709280E-01  0.000000E+00
  9.880950E-01  1.555403E-03  5.000000E-01  9.980753E-01  1.609222E-03  0.000000E+00  3.023655E-03 -9.605546E-04  1.049691E-15 -5.704897E-01  0.000000E+00
  9.866100E-01  2.031326E-03  5.000000E-01  9.965753E-01  2.089951E-03  0.000000E+00  1.982500E-03 -6.493703E-04  4.878134E-16 -5.625920E-01  0.000000E+00
  9.846960E-01  2.650652E-03  5.000000E-01  9.946419E-01  2.715532E-03  0.000000E+00  9.945850E-04 -3.230313E-04  2.056597E-16 -5.589566E-01  0.000000E+00
  9.823490E-01  3.418237E-03  5.000000E-01  9.922712E-01  3.490869E-03  0.000000E+00  1.836783E-04 -5.875549E-05  7.333001E-17 -5.579803E-01  0.000000E+00
  9.795670E-01  4.338729E-03  5.000000E-01  9.894611E-01  4.420657E-03  0.000000E+00 -4.290099E-04  1.431235E-04  1.099982E-17 -5.582256E-01  0.000000E+00
  9.763420E-01  5.417910E-03  5.000000E-01  9.862036E-01  5.510736E-03  0.000000E+00 -8.725296E-04  2.935984E-04 -1.357488E-17 -5.596734E-01  0.000000E+00
  9.726710E-01  6.659512E-03  5.000000E-01  9.824955E-01  6.764877E-03  0.000000E+00 -1.171198E-03  3.978954E-04 -1.683446E-17 -5.622093E-01  0.000000E+00
  9.685460E-01  8.066714E-03  5.000000E-01  9.783288E-01  8.186290E-03  0.000000E+00 -1.342330E-03  4.595085E-04 -1.141021E-17 -5.654134E-01  0.000000E+00
  9.639600E-01  9.641660E-03  5.000000E-01  9.736965E-01  9.777141E-03  0.000000E+00 -1.402617E-03  4.830218E-04 -5.610394E-18 -5.687772E-01  0.000000E+00
  9.589060E-01  1.138649E-02  5.000000E-01  9.685915E-01  1.153960E-02  0.000000E+00 -1.372539E-03  4.747299E-04 -1.545202E-18 -5.718249E-01  0.000000E+00
  9.533750E-01  1.330240E-02  5.000000E-01  9.630046E-01  1.347485E-02  0.000000E+00 -1.278028E-03  4.429844E-04  2.748517E-19 -5.741933E-01  0.000000E+00
  9.473580E-01  1.538812E-02  5.000000E-01  9.569269E-01  1.558164E-02  0.000000E+00 -1.148967E-03  3.979547E-04  1.282662E-18 -5.756982E-01  0.000000E+00
  9.408450E-01  1.764034E-02  5.000000E-01  9.503481E-01  1.785660E-02  0.000000E+00 -1.015596E-03  3.503494E-04  9.095999E-19 -5.763704E-01  0.000000E+00
  9.338260E-01  2.005375E-02  5.000000E-01  9.432582E-01  2.029438E-02  0.000000E+00 -9.046182E-04  3.096641E-04 -3.548758E-19 -5.764392E-01  0.000000E+00
  9.262910E-01  2.261990E-02  5.000000E-01  9.356471E-01  2.288645E-02  0.000000E+00 -8.365989E-04  2.829209E-04 -2.498276E-19 -5.762578E-01  0.000000E+00
  9.182290E-01  2.532598E-02  5.000000E-01  9.275037E-01  2.561985E-02  0.000000E+00 -8.254208E-04  2.741892E-04 -1.569265E-18 -5.761972E-01  0.000000E+00
  9.096280E-01  2.815425E-02  5.000000E-01  9.188158E-01  2.847669E-02  0.000000E+00 -8.787287E-04  2.846916E-04 -2.217889E-18 -5.766177E-01  0.000000E+00
  9.004770E-01  3.108124E-02  5.000000E-01  9.095724E-01  3.143323E-02  0.000000E+00 -9.982918E-04  3.130246E-04 -1.738681E-18 -5.778339E-01  0.000000E+00
  8.907650E-01  3.407598E-02  5.000000E-01  8.997623E-01  3.445822E-02  0.000000E+00 -1.181245E-03  3.548292E-04 -1.847053E-18 -5.799293E-01  0.000000E+00
  8.804800E-01  3.709706E-02  5.000000E-01  8.893735E-01  3.750981E-02  0.000000E+00 -1.420625E-03  4.023956E-04 -1.089449E-18 -5.828053E-01  0.000000E+00
  8.696090E-01  4.008869E-02  5.000000E-01  8.783927E-01  4.053165E-02  0.000000E+00 -1.701976E-03  4.462703E-04  8.063574E-19 -5.863937E-01  0.000000E+00
  8.696090E-01  4.008869E-02  5.000000E-01  8.783927E-01  4.053165E-02  0.000000E+00 -1.701976E-03  4.462703E-04  8.063574E-19 -5.863937E-01  0.000000E+00
  8.581400E-01  4.297875E-02  5.000000E-01  8.668079E-01  4.345090E-02  0.000000E+00 -2.005248E-03  4.775362E-04  1.068175E-18 -5.896820E-01  0.000000E+00
  8.460600E-01  4.568300E-02  5.000000E-01  8.546059E-01  4.618246E-02  0.000000E+00 -2.312724E-03  4.859542E-04 -2.567792E-19 -5.904694E-01  0.000000E+00
  8.333640E-01  4.812149E-02  5.000000E-01  8.417817E-01  4.864557E-02  0.000000E+00 -2.568384E-03  4.507523E-04 -1.221887E-18 -5.920890E-01  0.000000E+00
  8.200460E-01  5.021849E-02  5.000000E-01  8.283292E-01  5.076375E-02  0.000000E+00 -2.535508E-03  3.436912E-04 -1.145882E-18 -6.140263E-01  0.000000E+00
  8.061050E-01  5.190641E-02  5.000000E-01  8.142474E-01  5.246872E-02  0.000000E+00 -1.627371E-03  1.599200E-04  3.025917E-19 -6.854707E-01  0.000000E+00
  7.915460E-01  5.315927E-02  5.000000E-01  7.995413E-01  5.373423E-02  0.000000E+00  1.040750E-03 -5.508419E-05  2.288521E-18 -8.119097E-01  0.000000E+00
  7.763770E-01  5.401598E-02  5.000000E-01  7.842191E-01  5.459959E-02  0.000000E+00  6.067253E-03 -2.175680E-04  3.229215E-18 -9.529148E-01  0.000000E+00
  7.606070E-01  5.454567E-02  5.000000E-01  7.682899E-01  5.513463E-02  0.000000E+00  1.268859E-02 -2.299811E-04  8.293992E-19 -1.050476E+00  0.000000E+00
  7.442510E-01  5.475586E-02  5.000000E-01  7.517687E-01  5.534694E-02  0.000000E+00  1.850144E-02 -3.808722E-05 -4.860587E-18 -1.080988E+00  0.000000E+00
  7.273250E-01  5.466491E-02  5.000000E-01  7.346718E-01  5.525507E-02  0.000000E+00  2.145788E-02  2.646722E-04 -1.084542E-17 -1.066214E+00  0.000000E+00
  7.098490E-01  5.432612E-02  5.000000E-01  7.170193E-01  5.491286E-02  0.000000E+00  2.164696E-02  4.943330E-04 -1.456282E-17 -1.041208E+00  0.000000E+00
  6.918480E-01  5.383680E-02  5.000000E-01  6.988365E-01  5.441860E-02  0.000000E+00  2.049329E-02  5.410806E-04 -1.410342E-17 -1.030442E+00  0.000000E+00
  6.733520E-01  5.334871E-02  5.000000E-01  6.801537E-01  5.392559E-02  0.000000E+00  1.928850E-02  3.956637E-04 -1.132416E-17 -1.044548E+00  0.000000E+00
  6.543930E-01  5.306330E-02  5.000000E-01  6.610032E-01  5.363729E-02  0.000000E+00  1.872160E-02  1.239496E-04 -8.740298E-18 -1.079921E+00  0.000000E+00
  6.350090E-01  5.310087E-02  5.000000E-01  6.414235E-01  5.367524E-02  0.000000E+00  1.901616E-02 -1.565657E-04 -6.120614E-18 -1.120993E+00  0.000000E+00
  6.152440E-01  5.339250E-02  5.000000E-01  6.214589E-01  5.396981E-02  0.000000E+00  1.996227E-02 -3.616749E-04 -4.169419E-18 -1.153081E+00  0.000000E+00
  5.951420E-01  5.382596E-02  5.000000E-01  6.011539E-01  5.440766E-02  0.000000E+00  2.110080E-02 -4.538609E-04 -4.411598E-18 -1.169160E+00  0.000000E+00
  5.747530E-01  5.426832E-02  5.000000E-01  5.805590E-01  5.485448E-02  0.000000E+00  2.206090E-02 -3.964908E-04 -5.591091E-18 -1.166757E+00  0.000000E+00
  5.541290E-01  5.457203E-02  5.000000E-01  5.597267E-01  5.516126E-02  0.000000E+00  2.267280E-02 -1.777400E-04 -5.725699E-18 -1.147352E+00  0.000000E+00
  5.333260E-01  5.459690E-02  5.000000E-01  5.387136E-01  5.518638E-02  0.000000E+00  2.287469E-02  1.280470E-04 -6.127326E-18 -1.118521E+00  0.000000E+00
  5.124010E-01  5.433287E-02  5.000000E-01  5.175773E-01  5.491968E-02  0.000000E+00  2.271775E-02  4.114172E-04 -6.568131E-18 -1.090038E+00  0.000000E+00
  4.914140E-01  5.383229E-02  5.000000E-01  4.963783E-01  5.441405E-02  0.000000E+00  2.238925E-02  6.271079E-04 -6.188954E-18 -1.067461E+00  0.000000E+00
  4.704230E-01  5.315353E-02  5.000000E-01  4.751754E-01  5.372843E-02  0.000000E+00  2.207203E-02  7.733237E-04 -6.583672E-18 -1.052899E+00  0.000000E+00
  1.696960E-04 -4.802989E-04  5.000000E-01  1.730287E-04 -4.470381E-04  0.000000E+00 -6.438086E-02  9.280585E-02 -6.601093E-14  5.411874E-01  0.000000E+00
  8.054360E-04 -9.771507E-04  5.000000E-01  8.151890E-04 -9.489076E-04  0.000000E+00 -4.693761E-02  3.284139E-02 -5.132501E-14  1.107045E+00  0.000000E+00
  1.973980E-03 -1.583486E-03  5.000000E-01  1.995534E-03 -1.561366E-03  0.000000E+00 -2.104631E-02  1.046688E-02 -2.827062E-14  1.176650E+00  0.000000E+00
  3.614630E-03 -2.297375E-03  5.000000E-01  3.652753E-03 -2.282465E-03  0.000000E+00 -4.048339E-03  1.768062E-03 -9.689329E-15  1.152873E+00  0.000000E+00
  5.721210E-03 -3.127307E-03  5.000000E-01  5.780607E-03 -3.120778E-03  0.000000E+00  5.026240E-03 -1.864263E-03 -5.565618E-17  1.122500E+00  0.000000E+00
  8.297500E-03 -4.070850E-03  5.000000E-01  8.382914E-03 -4.073850E-03  0.000000E+00  9.334235E-03 -3.266577E-03  2.462483E-15  1.078158E+00  0.000000E+00
  1.136560E-02 -5.108421E-03  5.000000E-01  1.148200E-02 -5.121899E-03  0.000000E+00  1.110130E-02 -3.617109E-03  1.801095E-15  1.023729E+00  0.000000E+00
  1.493280E-02 -6.228790E-03  5.000000E-01  1.508522E-02 -6.253583E-03  0.000000E+00  1.169599E-02 -3.582581E-03  6.744981E-16  9.692239E-01  0.000000E+00
  1.899460E-02 -7.440289E-03  5.000000E-01  1.918804E-02 -7.477316E-03  0.000000E+00  1.195200E-02 -3.512830E-03  4.573864E-17  9.185403E-01  0.000000E+00
  2.354800E-02 -8.758987E-03  5.000000E-01  2.378743E-02 -8.809331E-03  0.000000E+00  1.228640E-02 -3.505106E-03 -1.166083E-16  8.686660E-01  0.000000E+00
  2.860130E-02 -1.018038E-02  5.000000E-01  2.889176E-02 -1.024508E-02  0.000000E+00  1.281774E-02 -3.544278E-03 -8.445172E-17  8.169515E-01  0.000000E+00
  3.416500E-02 -1.169336E-02  5.000000E-01  3.451165E-02 -1.177334E-02  0.000000E+00  1.352742E-02 -3.611745E-03 -3.060482E-17  7.646223E-01  0.000000E+00
  4.024810E-02 -1.328870E-02  5.000000E-01  4.065618E-02 -1.338479E-02  0.000000E+00  1.435671E-02 -3.688279E-03 -2.613406E-18  7.125917E-01  0.000000E+00
  4.686030E-02 -1.495405E-02  5.000000E-01  4.733516E-02 -1.506696E-02  0.000000E+00  1.524113E-02 -3.754029E-03  5.477405E-18  6.606459E-01  0.000000E+00
  5.401090E-02 -1.667766E-02  5.000000E-01  5.455797E-02 -1.680798E-02  0.000000E+00  1.613388E-02 -3.800597E-03  5.688586E-18  6.088571E-01  0.000000E+00
  6.170850E-02 -1.845086E-02  5.000000E-01  6.233331E-02 -1.859908E-02  0.000000E+00  1.700928E-02 -3.819649E-03  2.824250E-18  5.568566E-01  0.000000E+00
  6.996310E-02 -2.025924E-02  5.000000E-01  7.067127E-02 -2.042573E-02  0.000000E+00  1.785345E-02 -3.798663E-03  2.324091E-19  5.039453E-01  0.000000E+00
  7.878500E-02 -2.208313E-02  5.000000E-01  7.958226E-02 -2.226803E-02  0.000000E+00  1.866311E-02 -3.734021E-03 -7.763667E-19  4.503280E-01  0.000000E+00
  8.818390E-02 -2.390333E-02  5.000000E-01  8.907608E-02 -2.410661E-02  0.000000E+00  1.943945E-02 -3.625826E-03  2.767935E-20  3.964488E-01  0.000000E+00
  9.816930E-02 -2.569725E-02  5.000000E-01  9.916232E-02 -2.591865E-02  0.000000E+00  2.017664E-02 -3.469445E-03  1.873061E-19  3.423795E-01  0.000000E+00
  1.087500E-01 -2.743801E-02  5.000000E-01  1.098499E-01 -2.767699E-02  0.000000E+00  2.085790E-02 -3.261445E-03 -1.760422E-19  2.885572E-01  0.000000E+00
  1.199340E-01 -2.909832E-02  5.000000E-01  1.211468E-01 -2.935407E-02  0.000000E+00  2.144760E-02 -2.996926E-03  5.691038E-19  2.357035E-01  0.000000E+00
  1.317280E-01 -3.064625E-02  5.000000E-01  1.330599E-01 -3.091763E-02  0.000000E+00  2.188441E-02 -2.667315E-03  7.717490E-19  1.846852E-01  0.000000E+00
  1.441380E-01 -3.204466E-02  5.000000E-01  1.455953E-01 -3.233017E-02  0.000000E+00  2.209717E-02 -2.273065E-03  1.069072E-18  1.373012E-01  0.000000E+00
  1.441380E-01 -3.204466E-02  5.000000E-01  1.455953E-01 -3.233017E-02  0.000000E+00  2.209717E-02 -2.273065E-03  1.069072E-18  1.373012E-01  0.000000E+00
  1.571670E-01 -3.325756E-02  5.000000E-01  1.587558E-01 -3.355531E-02  0.000000E+00  2.203644E-02 -1.828590E-03  1.201763E-18  9.612804E-02  0.000000E+00
  1.708170E-01 -3.425080E-02  5.000000E-01  1.725437E-01 -3.455858E-02  0.000000E+00  2.171571E-02 -1.364360E-03  1.361299E-18  6.386199E-02  0.000000E+00
  1.850860E-01 -3.500197E-02  5.000000E-01  1.869568E-01 -3.531733E-02  0.000000E+00  2.124484E-02 -9.338987E-04  1.236779E-18  4.275786E-02  0.000000E+00
  1.999720E-01 -3.552167E-02  5.000000E-01  2.019931E-01 -3.584228E-02  0.000000E+00  2.081098E-02 -6.056798E-04  5.049499E-19  3.338848E-02  0.000000E+00
  2.154670E-01 -3.587833E-02  5.000000E-01  2.176446E-01 -3.620255E-02  0.000000E+00  2.056162E-02 -4.052896E-04 -1.058359E-18  3.113947E-02  0.000000E+00
  2.315610E-01 -3.614416E-02  5.000000E-01  2.339011E-01 -3.647106E-02  0.000000E+00  2.048417E-02 -2.683616E-04 -1.200658E-18  2.564346E-02  0.000000E+00
  2.482400E-01 -3.631000E-02  5.000000E-01  2.507486E-01 -3.663858E-02  0.000000E+00  2.047916E-02 -1.256741E-04 -4.845638E-19  1.130104E-02  0.000000E+00
  2.654840E-01 -3.635130E-02  5.000000E-01  2.681667E-01 -3.668030E-02  0.000000E+00  2.046879E-02  4.026376E-05 -3.899838E-20 -8.617936E-03  0.000000E+00
  2.832720E-01 -3.623795E-02  5.000000E-01  2.861343E-01 -3.656580E-02  0.000000E+00  2.039778E-02  2.293144E-04 -9.357363E-19 -2.881331E-02  0.000000E+00
  3.015770E-01 -3.594153E-02  5.000000E-01  3.046242E-01 -3.626639E-02  0.000000E+00  2.022903E-02  4.332585E-04 -2.205718E-18 -4.541188E-02  0.000000E+00
  3.203660E-01 -3.543927E-02  5.000000E-01  3.236030E-01 -3.575906E-02  0.000000E+00  1.994463E-02  6.407465E-04 -1.093388E-18 -5.659337E-02  0.000000E+00
  3.396030E-01 -3.471537E-02  5.000000E-01  3.430342E-01 -3.502785E-02  0.000000E+00  1.955034E-02  8.386424E-04 -7.716106E-19 -6.175803E-02  0.000000E+00
  3.592490E-01 -3.376644E-02  5.000000E-01  3.628786E-01 -3.406933E-02  0.000000E+00  1.907190E-02  1.015186E-03 -6.982351E-19 -6.097261E-02  0.000000E+00
  3.792580E-01 -3.259996E-02  5.000000E-01  3.830897E-01 -3.289107E-02  0.000000E+00  1.854078E-02  1.165014E-03 -6.634442E-19 -5.502729E-02  0.000000E+00
  3.995810E-01 -3.122811E-02  5.000000E-01  4.036179E-01 -3.150536E-02  0.000000E+00  1.798490E-02  1.287265E-03 -2.796975E-19 -4.505057E-02  0.000000E+00
  4.201670E-01 -2.966835E-02  5.000000E-01  4.244118E-01 -2.992986E-02  0.000000E+00  1.742373E-02  1.382921E-03  1.013731E-18 -3.210752E-02  0.000000E+00
  4.409600E-01 -2.794095E-02  5.000000E-01  4.454148E-01 -2.818501E-02  0.000000E+00  1.686407E-02  1.455319E-03  1.664389E-18 -1.715081E-02  0.000000E+00
  4.619030E-01 -2.606445E-02  5.000000E-01  4.665693E-01 -2.628956E-02  0.000000E+00  1.630177E-02  1.509158E-03  9.662963E-19 -8.819638E-04  0.000000E+00
  4.829360E-01 -2.405291E-02  5.000000E-01  4.878147E-01 -2.425771E-02  0.000000E+00  1.573154E-02  1.546491E-03 -7.350609E-19  1.658956E-02  0.000000E+00
  5.039990E-01 -2.192392E-02  5.000000E-01  5.090904E-01 -2.210722E-02  0.000000E+00  1.515453E-02  1.566067E-03 -3.952667E-19  3.557061E-02  0.000000E+00
  5.250310E-01 -1.970078E-02  5.000000E-01  5.303348E-01 -1.986163E-02  0.000000E+00  1.457723E-02  1.567447E-03  6.606356E-19  5.607878E-02  0.000000E+00
  5.459710E-01 -1.740957E-02  5.000000E-01  5.514863E-01 -1.754728E-02  0.000000E+00  1.400949E-02  1.552347E-03 -1.428612E-19  7.764643E-02  0.000000E+00
  5.667600E-01 -1.507606E-02  5.000000E-01  5.724853E-01 -1.519020E-02  0.000000E+00  1.346711E-02  1.521470E-03 -4.787297E-19  9.983392E-02  0.000000E+00
  4.704230E-01  5.315353E-02  5.000000E-01  4.751754E-01  5.372843E-02  0.000000E+00  2.207203E-02  7.733237E-04 -6.583672E-18 -1.052899E+00  0.000000E+00
  4.494880E-01  5.235983E-02  5.000000E-01  4.540289E-01  5.292671E-02  0.000000E+00  2.187082E-02  8.576812E-04 -8.124440E-18 -1.046517E+00  0.000000E+00
  4.286690E-01  5.151419E-02  5.000000E-01  4.329997E-01  5.207254E-02  0.000000E+00  2.184093E-02  9.081129E-04 -9.622440E-18 -1.045760E+00  0.000000E+00
  4.080230E-01  5.063747E-02  5.000000E-01  4.121452E-01  5.118696E-02  0.000000E+00  2.199080E-02  9.661788E-04 -1.082038E-17 -1.046350E+00  0.000000E+00
  3.876050E-01  4.971267E-02  5.000000E-01  3.915210E-01  5.025282E-02  0.000000E+00  2.225520E-02  1.050864E-03 -1.123970E-17 -1.045508E+00  0.000000E+00
  3.674690E-01  4.872428E-02  5.000000E-01  3.711816E-01  4.925445E-02  0.000000E+00  2.254071E-02  1.159215E-03 -1.150821E-17 -1.042503E+00  0.000000E+00
  3.476650E-01  4.766024E-02  5.000000E-01  3.511776E-01  4.817967E-02  0.000000E+00  2.278815E-02  1.286680E-03 -1.166395E-17 -1.037410E+00  0.000000E+00
  3.282390E-01  4.651107E-02  5.000000E-01  3.315555E-01  4.701889E-02  0.000000E+00  2.297909E-02  1.429474E-03 -1.130480E-17 -1.030700E+00  0.000000E+00
  3.092330E-01  4.527101E-02  5.000000E-01  3.123575E-01  4.576631E-02  0.000000E+00  2.311532E-02  1.579872E-03 -1.153594E-17 -1.023268E+00  0.000000E+00
  2.906860E-01  4.394552E-02  5.000000E-01  2.936232E-01  4.442744E-02  0.000000E+00  2.320938E-02  1.730869E-03 -1.267542E-17 -1.015962E+00  0.000000E+00
  2.726330E-01  4.254284E-02  5.000000E-01  2.753879E-01  4.301058E-02  0.000000E+00  2.327994E-02  1.882080E-03 -1.304435E-17 -1.009085E+00  0.000000E+00
  2.551020E-01  4.107026E-02  5.000000E-01  2.576799E-01  4.152314E-02  0.000000E+00  2.334036E-02  2.035811E-03 -1.312930E-17 -1.002575E+00  0.000000E+00
  2.381210E-01  3.953478E-02  5.000000E-01  2.405274E-01  3.997215E-02  0.000000E+00  2.339816E-02  2.196505E-03 -1.351862E-17 -9.961858E-01  0.000000E+00
  2.217090E-01  3.793897E-02  5.000000E-01  2.239496E-01  3.836022E-02  0.000000E+00  2.345202E-02  2.366176E-03 -1.279843E-17 -9.901044E-01  0.000000E+00
  2.058840E-01  3.628526E-02  5.000000E-01  2.079648E-01  3.668981E-02  0.000000E+00  2.348051E-02  2.524923E-03 -1.267004E-17 -9.863668E-01  0.000000E+00
  1.906600E-01  3.459982E-02  5.000000E-01  1.925871E-01  3.498735E-02  0.000000E+00  2.347398E-02  2.638264E-03 -1.476521E-17 -9.881576E-01  0.000000E+00
  1.760460E-01  3.293040E-02  5.000000E-01  1.778255E-01  3.330107E-02  0.000000E+00  2.349497E-02  2.710751E-03 -1.970514E-17 -9.959300E-01  0.000000E+00
  1.620500E-01  3.129955E-02  5.000000E-01  1.636881E-01  3.165375E-02  0.000000E+00  2.362991E-02  2.782689E-03 -2.925143E-17 -1.007028E+00  0.000000E+00
  1.486750E-01  2.970882E-02  5.000000E-01  1.501781E-01  3.004696E-02  0.000000E+00  2.389794E-02  2.882517E-03 -4.453764E-17 -1.018662E+00  0.000000E+00
  1.359210E-01  2.814990E-02  5.000000E-01  1.372953E-01  2.847229E-02  0.000000E+00  2.425039E-02  3.017760E-03 -6.863170E-17 -1.029183E+00  0.000000E+00
  1.237890E-01  2.661411E-02  5.000000E-01  1.250407E-01  2.692099E-02  0.000000E+00  2.461969E-02  3.185831E-03 -1.070780E-16 -1.038006E+00  0.000000E+00
  1.122730E-01  2.509221E-02  5.000000E-01  1.134084E-01  2.538372E-02  0.000000E+00  2.495686E-02  3.381677E-03 -1.724365E-16 -1.045257E+00  0.000000E+00
  1.013710E-01  2.357883E-02  5.000000E-01  1.023964E-01  2.385506E-02  0.000000E+00  2.524036E-02  3.598836E-03 -2.856880E-16 -1.051556E+00  0.000000E+00
  9.107400E-02  2.207227E-02  5.000000E-01  9.199536E-02  2.233328E-02  0.000000E+00  2.547405E-02  3.836478E-03 -4.783520E-16 -1.057481E+00  0.000000E+00
  9.107400E-02  2.207227E-02  5.000000E-01  9.199536E-02  2.233328E-02  0.000000E+00  2.547405E-02  3.836478E-03 -4.783520E-16 -1.057481E+00  0.000000E+00
  8.137660E-02  2.057057E-02  5.000000E-01  8.220003E-02  2.081642E-02  0.000000E+00  2.566573E-02  4.092892E-03 -8.089058E-16 -1.063778E+00  0.000000E+00
  7.227050E-02  1.907642E-02  5.000000E-01  7.300197E-02  1.930718E-02  0.000000E+00  2.581949E-02  4.362057E-03 -1.381105E-15 -1.071463E+00  0.000000E+00
  6.374670E-02  1.759516E-02  5.000000E-01  6.439209E-02  1.781097E-02  0.000000E+00  2.594598E-02  4.645059E-03 -2.375610E-15 -1.081209E+00  0.000000E+00
  5.579720E-02  1.613035E-02  5.000000E-01  5.636231E-02  1.633136E-02  0.000000E+00  2.604586E-02  4.938039E-03 -4.092096E-15 -1.093927E+00  0.000000E+00
  4.841260E-02  1.469071E-02  5.000000E-01  4.890313E-02  1.487718E-02  0.000000E+00  2.611744E-02  5.235738E-03 -6.996261E-15 -1.110611E+00  0.000000E+00
  4.158390E-02  1.328424E-02  5.000000E-01  4.200547E-02  1.345650E-02  0.000000E+00  2.616610E-02  5.544657E-03 -1.170685E-14 -1.131655E+00  0.000000E+00
  3.530370E-02  1.191596E-02  5.000000E-01  3.566185E-02  1.207440E-02  0.000000E+00  2.617315E-02  5.859508E-03 -1.882223E-14 -1.157901E+00  0.000000E+00
  2.956270E-02  1.059553E-02  5.000000E-01  2.986287E-02  1.074064E-02  0.000000E+00  2.611164E-02  6.175509E-03 -2.848722E-14 -1.190015E+00  0.000000E+00
  2.435310E-02  9.329607E-03  5.000000E-01  2.460066E-02  9.461937E-03  0.000000E+00  2.594181E-02  6.504605E-03 -3.961989E-14 -1.227406E+00  0.000000E+00
  1.967110E-02  8.118778E-03  5.000000E-01  1.987137E-02  8.238880E-03  0.000000E+00  2.552936E-02  6.817369E-03 -4.921077E-14 -1.270383E+00  0.000000E+00
  1.550860E-02  6.970278E-03  5.000000E-01  1.566684E-02  7.078782E-03  0.000000E+00  2.469620E-02  7.065197E-03 -5.289671E-14 -1.319247E+00  0.000000E+00
  1.185930E-02  5.887818E-03  5.000000E-01  1.198068E-02  5.985390E-03  0.000000E+00  2.334317E-02  7.240491E-03 -4.734461E-14 -1.372140E+00  0.000000E+00
  8.724160E-03  4.867608E-03  5.000000E-01  8.813883E-03  4.954877E-03  0.000000E+00  2.159278E-02  7.369916E-03 -3.312467E-14 -1.428601E+00  0.000000E+00
  6.091130E-03  3.917841E-03  5.000000E-01  6.154263E-03  3.995518E-03  0.000000E+00  2.032870E-02  7.841553E-03 -1.636323E-14 -1.484032E+00  0.000000E+00
  3.952840E-03  3.041213E-03  5.000000E-01  3.994378E-03  3.110037E-03  0.000000E+00  2.112127E-02  9.745775E-03 -5.767122E-15 -1.521466E+00  0.000000E+00
  2.330070E-03  2.224914E-03  5.000000E-01  2.355220E-03  2.285494E-03  0.000000E+00  2.420147E-02  1.419353E-02 -5.240797E-15 -1.529379E+00  0.000000E+00
  1.198080E-03  1.486989E-03  5.000000E-01  1.211798E-03  1.540117E-03  0.000000E+00  2.754587E-02  2.137057E-02 -1.159516E-14 -1.517733E+00  0.000000E+00
  5.019560E-04  8.604080E-04  5.000000E-01  5.086442E-04  9.072084E-04  0.000000E+00  3.035027E-02  3.345842E-02 -2.017839E-14 -1.529504E+00  0.000000E+00
  1.313430E-04  3.769608E-04  5.000000E-01  1.342884E-04  4.188789E-04  0.000000E+00  3.499783E-02  7.026027E-02 -2.914916E-14 -1.565202E+00  0.000000E+00
  8.078190E-06  6.871156E-05  5.000000E-01  9.778777E-06  1.075167E-04  0.000000E+00  3.049531E-02  1.731560E-01 -4.042362E-14 -1.484453E+00  0.000000E+00
 -1.602820E-06 -3.773021E-05  5.000000E-01  0.000000E+00  0.000000E+00  0.000000E+00 -4.954742E-03  2.520862E-01 -5.180739E-14 -1.190792E+00  0.000000E+00
  9.141860E-06 -1.477809E-04  5.000000E-01  1.085319E-05 -1.111621E-04  0.000000E+00 -4.976586E-02  1.967930E-01 -6.278952E-14 -4.685395E-01  0.000000E+00