 Title = "ADflow Slice Data"
Variables =  "CoordinateX"  "CoordinateY"  "CoordinateZ"  "XoC"  "YoC"  "ZoC" "VelocityX" "VelocityY" "VelocityZ" "CoefPressure" "Mach" 
Zone T= "Slice_0001 None Absolute Regular z = 0.50000000"
 Nodes =          192  Elements=          184  ZONETYPE=FELINESEG
 DATAPACKING=POINT
  5.667600E-01 -1.512104E-02  5.000000E-01  5.724853E-01 -1.523500E-02  0.000000E+00  1.341172E-02  1.530207E-03 -1.522340E-18  9.988800E-02  0.000000E+00
  5.873410E-01 -1.275936E-02  5.000000E-01  5.932741E-01 -1.284947E-02  0.000000E+00  1.290497E-02  1.479771E-03 -6.807605E-19  1.228754E-01  0.000000E+00
  6.076580E-01 -1.043156E-02  5.000000E-01  6.137963E-01 -1.049816E-02  0.000000E+00  1.245994E-02  1.418393E-03 -7.654726E-19  1.448337E-01  0.000000E+00
  6.276600E-01 -8.170162E-03  5.000000E-01  6.340003E-01 -8.213927E-03  0.000000E+00  1.207458E-02  1.350288E-03 -5.787259E-19  1.651660E-01  0.000000E+00
  6.472970E-01 -5.999643E-03  5.000000E-01  6.538356E-01 -6.021488E-03  0.000000E+00  1.173952E-02  1.280411E-03  8.667346E-19  1.835080E-01  0.000000E+00
  6.665260E-01 -3.931872E-03  5.000000E-01  6.732588E-01 -3.932835E-03  0.000000E+00  1.144454E-02  1.211306E-03 -5.681566E-19  2.000668E-01  0.000000E+00
  6.853050E-01 -1.976521E-03  5.000000E-01  6.922274E-01 -1.957738E-03  0.000000E+00  1.118350E-02  1.140449E-03 -2.783283E-18  2.156351E-01  0.000000E+00
  7.035980E-01 -1.507288E-04  5.000000E-01  7.107052E-01 -1.135069E-04  0.000000E+00  1.094627E-02  1.065226E-03 -3.137283E-19  2.305552E-01  0.000000E+00
  7.213750E-01  1.533643E-03  5.000000E-01  7.286617E-01  1.587875E-03  0.000000E+00  1.071008E-02  9.860350E-04  9.666080E-19  2.444967E-01  0.000000E+00
  7.386080E-01  3.072390E-03  5.000000E-01  7.460687E-01  3.142162E-03  0.000000E+00  1.044590E-02  9.049823E-04 -2.579239E-19  2.573874E-01  0.000000E+00
  7.552750E-01  4.470666E-03  5.000000E-01  7.629040E-01  4.554559E-03  0.000000E+00  1.013561E-02  8.262975E-04 -6.808675E-19  2.696585E-01  0.000000E+00
  7.713580E-01  5.741344E-03  5.000000E-01  7.791495E-01  5.838070E-03  0.000000E+00  9.791960E-03  7.517808E-04 -6.153511E-19  2.818687E-01  0.000000E+00
  7.868410E-01  6.895421E-03  5.000000E-01  7.947888E-01  7.003801E-03  0.000000E+00  9.481920E-03  6.641060E-04 -1.353508E-18  2.957420E-01  0.000000E+00
  8.017160E-01  7.872932E-03  5.000000E-01  8.098140E-01  7.991184E-03  0.000000E+00  9.306634E-03  5.403842E-04 -2.039813E-18  3.116174E-01  0.000000E+00
  8.159740E-01  8.590498E-03  5.000000E-01  8.242160E-01  8.715997E-03  0.000000E+00  9.329760E-03  3.860574E-04 -1.171810E-18  3.245282E-01  0.000000E+00
  8.296120E-01  9.030470E-03  5.000000E-01  8.379918E-01  9.160412E-03  0.000000E+00  9.555092E-03  2.187762E-04 -2.417138E-18  3.296069E-01  0.000000E+00
  8.426300E-01  9.209099E-03  5.000000E-01  8.511412E-01  9.340845E-03  0.000000E+00  9.959218E-03  4.535322E-05 -2.934644E-18  3.267964E-01  0.000000E+00
  8.550290E-01  9.157746E-03  5.000000E-01  8.636654E-01  9.288973E-03  0.000000E+00  1.051388E-02 -1.332164E-04 -1.098772E-18  3.180818E-01  0.000000E+00
  8.668160E-01  8.914133E-03  5.000000E-01  8.755715E-01  9.042900E-03  0.000000E+00  1.119012E-02 -3.157903E-04 -6.012703E-19  3.048121E-01  0.000000E+00
  8.779950E-01  8.519516E-03  5.000000E-01  8.868634E-01  8.644298E-03  0.000000E+00  1.195811E-02 -4.998125E-04 -1.249202E-18  2.875480E-01  0.000000E+00
  8.885730E-01  8.013165E-03  5.000000E-01  8.975482E-01  8.132833E-03  0.000000E+00  1.278855E-02 -6.827060E-04 -1.921268E-18  2.668777E-01  0.000000E+00
  8.985610E-01  7.428446E-03  5.000000E-01  9.076371E-01  7.542209E-03  0.000000E+00  1.364886E-02 -8.577221E-04 -1.839034E-18  2.433226E-01  0.000000E+00
  9.079670E-01  6.799131E-03  5.000000E-01  9.171381E-01  6.906539E-03  0.000000E+00  1.449974E-02 -1.012492E-03 -4.049134E-19  2.173448E-01  0.000000E+00
  9.168010E-01  6.157726E-03  5.000000E-01  9.260613E-01  6.258656E-03  0.000000E+00  1.530359E-02 -1.137870E-03  1.508365E-18  1.900020E-01  0.000000E+00
  9.168010E-01  6.157726E-03  5.000000E-01  9.260613E-01  6.258656E-03  0.000000E+00  1.530359E-02 -1.137870E-03  1.508365E-18  1.900020E-01  0.000000E+00
  9.250730E-01  5.529033E-03  5.000000E-01  9.344168E-01  5.623615E-03  0.000000E+00  1.603720E-02 -1.235089E-03  2.269533E-18  1.628186E-01  0.000000E+00
  9.327940E-01  4.927293E-03  5.000000E-01  9.422158E-01  5.015797E-03  0.000000E+00  1.670008E-02 -1.315849E-03  9.354254E-20  1.371084E-01  0.000000E+00
  9.399760E-01  4.355781E-03  5.000000E-01  9.494703E-01  4.438514E-03  0.000000E+00  1.730845E-02 -1.391690E-03 -1.480533E-18  1.131400E-01  0.000000E+00
  9.466320E-01  3.815200E-03  5.000000E-01  9.561935E-01  3.892473E-03  0.000000E+00  1.788248E-02 -1.467141E-03  5.808134E-18  9.017575E-02  0.000000E+00
  9.527730E-01  3.306371E-03  5.000000E-01  9.623965E-01  3.378506E-03  0.000000E+00  1.844685E-02 -1.548698E-03  2.654282E-17  6.767617E-02  0.000000E+00
  9.584110E-01  2.827154E-03  5.000000E-01  9.680915E-01  2.894450E-03  0.000000E+00  1.903425E-02 -1.647006E-03  3.386621E-17  4.540887E-02  0.000000E+00
  9.635570E-01  2.374318E-03  5.000000E-01  9.732895E-01  2.437040E-03  0.000000E+00  1.967859E-02 -1.767949E-03 -5.661540E-17  2.265614E-02  0.000000E+00
  9.682220E-01  1.946793E-03  5.000000E-01  9.780016E-01  2.005198E-03  0.000000E+00  2.041200E-02 -1.912160E-03 -2.946972E-16 -1.670653E-03  0.000000E+00
  9.724140E-01  1.545859E-03  5.000000E-01  9.822359E-01  1.600215E-03  0.000000E+00  2.128251E-02 -2.087646E-03 -4.182863E-16 -2.820214E-02  0.000000E+00
  9.761430E-01  1.171440E-03  5.000000E-01  9.860026E-01  1.222014E-03  0.000000E+00  2.237224E-02 -2.311569E-03  2.723936E-16 -5.739061E-02  0.000000E+00
  9.794160E-01  8.242704E-04  5.000000E-01  9.893086E-01  8.713387E-04  0.000000E+00  2.378321E-02 -2.597351E-03  2.060987E-15 -9.031732E-02  0.000000E+00
  9.822400E-01  5.074293E-04  5.000000E-01  9.921611E-01  5.512979E-04  0.000000E+00  2.556633E-02 -2.947187E-03  2.865781E-15 -1.284355E-01  0.000000E+00
  9.846200E-01  2.260650E-04  5.000000E-01  9.945652E-01  2.670922E-04  0.000000E+00  2.759058E-02 -3.347858E-03 -2.405152E-15 -1.720944E-01  0.000000E+00
  9.865620E-01 -1.453607E-05  5.000000E-01  9.965268E-01  2.406127E-05  0.000000E+00  2.940959E-02 -3.711579E-03 -1.664964E-14 -2.194032E-01  0.000000E+00
  9.880680E-01 -2.086060E-04  5.000000E-01  9.980480E-01 -1.719685E-04  0.000000E+00  2.987557E-02 -3.826696E-03 -2.751570E-14 -2.766121E-01  0.000000E+00
  9.891420E-01 -3.514239E-04  5.000000E-01  9.991328E-01 -3.162288E-04  0.000000E+00  2.812837E-02 -3.911131E-03  6.162333E-15 -3.434967E-01  0.000000E+00
  9.897860E-01 -4.389487E-04  5.000000E-01  9.997833E-01 -4.046374E-04  0.000000E+00  3.788608E-02 -4.013264E-03  1.292180E-13 -2.893913E-01  0.000000E+00
  9.900000E-01 -4.683023E-04  5.000000E-01  9.999995E-01 -4.342874E-04  0.000000E+00  2.618839E-02  5.267625E-03  1.236931E-13 -5.820156E-01  0.000000E+00
  9.900000E-01 -1.843754E-04  5.000000E-01  9.999995E-01 -1.474932E-04  0.000000E+00  1.229772E-03 -7.885230E-03  1.529304E-14 -8.088088E-01  0.000000E+00
  9.900000E-01  9.955150E-05  5.000000E-01  9.999995E-01  1.393010E-04  0.000000E+00 -4.468906E-04 -2.274865E-02 -4.732394E-15 -6.283587E-01  0.000000E+00
  9.900000E-01  3.834784E-04  5.000000E-01  9.999995E-01  4.260952E-04  0.000000E+00 -1.435995E-04 -8.862957E-03 -7.777746E-15 -6.283147E-01  0.000000E+00
  9.900000E-01  6.674053E-04  5.000000E-01  9.999995E-01  7.128894E-04  0.000000E+00  4.646602E-04 -5.229920E-03 -7.649135E-16 -6.881954E-01  0.000000E+00
  9.900000E-01  9.513321E-04  5.000000E-01  9.999995E-01  9.996837E-04  0.000000E+00  6.797360E-03 -6.632430E-03  7.103744E-15 -6.299442E-01  0.000000E+00
  9.900000E-01  9.513321E-04  5.000000E-01  9.999995E-01  9.996837E-04  0.000000E+00  6.797360E-03 -6.632430E-03  7.103744E-15 -6.299442E-01  0.000000E+00
  9.897890E-01  1.017904E-03  5.000000E-01  9.997864E-01  1.066928E-03  0.000000E+00  9.015795E-03 -3.469595E-03  8.071589E-15 -5.523838E-01  0.000000E+00
  9.891540E-01  1.218674E-03  5.000000E-01  9.991450E-01  1.269725E-03  0.000000E+00  4.567793E-03 -1.351284E-03  3.972399E-15 -5.709862E-01  0.000000E+00
  9.880950E-01  1.555408E-03  5.000000E-01  9.980753E-01  1.609860E-03  0.000000E+00  3.024808E-03 -9.609292E-04  7.092303E-16 -5.705462E-01  0.000000E+00
  9.866100E-01  2.031333E-03  5.000000E-01  9.965753E-01  2.090591E-03  0.000000E+00  1.983769E-03 -6.497835E-04 -2.441366E-16 -5.626464E-01  0.000000E+00
  9.846960E-01  2.650662E-03  5.000000E-01  9.946419E-01  2.716175E-03  0.000000E+00  9.959128E-04 -3.234645E-04 -3.785056E-17 -5.590085E-01  0.000000E+00
  9.823490E-01  3.418251E-03  5.000000E-01  9.922712E-01  3.491516E-03  0.000000E+00  1.849848E-04 -5.918527E-05  2.047185E-16 -5.580291E-01  0.000000E+00
  9.795670E-01  4.338749E-03  5.000000E-01  9.894611E-01  4.421309E-03  0.000000E+00 -4.278333E-04  1.427329E-04  1.944313E-16 -5.582710E-01  0.000000E+00
  9.763420E-01  5.417935E-03  5.000000E-01  9.862036E-01  5.511394E-03  0.000000E+00 -8.716043E-04  2.932889E-04  7.368930E-17 -5.597157E-01  0.000000E+00
  9.726710E-01  6.659543E-03  5.000000E-01  9.824955E-01  6.765541E-03  0.000000E+00 -1.170636E-03  3.977070E-04 -1.536038E-17 -5.622495E-01  0.000000E+00
  9.685460E-01  8.066753E-03  5.000000E-01  9.783288E-01  8.186962E-03  0.000000E+00 -1.342212E-03  4.594706E-04 -4.256710E-17 -5.654529E-01  0.000000E+00
  9.639600E-01  9.641707E-03  5.000000E-01  9.736965E-01  9.777821E-03  0.000000E+00 -1.402968E-03  4.831455E-04 -3.361391E-17 -5.688180E-01  0.000000E+00
  9.589060E-01  1.138655E-02  5.000000E-01  9.685915E-01  1.154029E-02  0.000000E+00 -1.373319E-03  4.750027E-04 -1.656101E-17 -5.718689E-01  0.000000E+00
  9.533750E-01  1.330247E-02  5.000000E-01  9.630046E-01  1.347555E-02  0.000000E+00 -1.279130E-03  4.433695E-04 -5.135849E-18 -5.742420E-01  0.000000E+00
  9.473580E-01  1.538821E-02  5.000000E-01  9.569269E-01  1.558236E-02  0.000000E+00 -1.150232E-03  3.983967E-04 -4.539436E-19 -5.757520E-01  0.000000E+00
  9.408450E-01  1.764045E-02  5.000000E-01  9.503481E-01  1.785735E-02  0.000000E+00 -1.016839E-03  3.507824E-04  1.910275E-18 -5.764286E-01  0.000000E+00
  9.338260E-01  2.005389E-02  5.000000E-01  9.432582E-01  2.029516E-02  0.000000E+00 -9.056490E-04  3.100219E-04  2.283226E-18 -5.765001E-01  0.000000E+00
  9.262910E-01  2.262009E-02  5.000000E-01  9.356471E-01  2.288727E-02  0.000000E+00 -8.372396E-04  2.831438E-04  1.268152E-18 -5.763189E-01  0.000000E+00
  9.182290E-01  2.532623E-02  5.000000E-01  9.275037E-01  2.562074E-02  0.000000E+00 -8.255167E-04  2.742300E-04  1.156923E-18 -5.762558E-01  0.000000E+00
  9.096280E-01  2.815459E-02  5.000000E-01  9.188158E-01  2.847766E-02  0.000000E+00 -8.781632E-04  2.845206E-04  3.542637E-19 -5.766713E-01  0.000000E+00
  9.004770E-01  3.108169E-02  5.000000E-01  9.095724E-01  3.143433E-02  0.000000E+00 -9.970033E-04  3.126363E-04 -2.045639E-19 -5.778806E-01  0.000000E+00
  8.907650E-01  3.407661E-02  5.000000E-01  8.997623E-01  3.445948E-02  0.000000E+00 -1.179244E-03  3.542562E-04  1.322539E-19 -5.799687E-01  0.000000E+00
  8.804800E-01  3.709794E-02  5.000000E-01  8.893735E-01  3.751133E-02  0.000000E+00 -1.418044E-03  4.017142E-04 -1.228652E-18 -5.828361E-01  0.000000E+00
  8.696090E-01  4.008991E-02  5.000000E-01  8.783927E-01  4.053352E-02  0.000000E+00 -1.699114E-03  4.455704E-04 -3.203717E-18 -5.864177E-01  0.000000E+00
  8.696090E-01  4.008991E-02  5.000000E-01  8.783927E-01  4.053352E-02  0.000000E+00 -1.699114E-03  4.455704E-04 -3.203717E-18 -5.864177E-01  0.000000E+00
  8.581400E-01  4.298047E-02  5.000000E-01  8.668079E-01  4.345327E-02  0.000000E+00 -2.002422E-03  4.769007E-04 -1.521229E-18 -5.897245E-01  0.000000E+00
  8.460600E-01  4.568543E-02  5.000000E-01  8.546059E-01  4.618555E-02  0.000000E+00 -2.310203E-03  4.855499E-04  5.171979E-19 -5.905560E-01  0.000000E+00
  8.333640E-01  4.812493E-02  5.000000E-01  8.417817E-01  4.864968E-02  0.000000E+00 -2.567403E-03  4.509354E-04 -2.675661E-19 -5.921099E-01  0.000000E+00
  8.200460E-01  5.022337E-02  5.000000E-01  8.283292E-01  5.076932E-02  0.000000E+00 -2.540663E-03  3.448710E-04  6.110634E-20 -6.136455E-01  0.000000E+00
  8.061050E-01  5.191334E-02  5.000000E-01  8.142474E-01  5.247635E-02  0.000000E+00 -1.648299E-03  1.621434E-04  3.004799E-18 -6.844017E-01  0.000000E+00
  7.915460E-01  5.316910E-02  5.000000E-01  7.995413E-01  5.374479E-02  0.000000E+00  9.922434E-04 -5.249490E-05  4.587989E-18 -8.103972E-01  0.000000E+00
  7.763770E-01  5.402984E-02  5.000000E-01  7.842191E-01  5.461422E-02  0.000000E+00  5.990949E-03 -2.164754E-04  1.740227E-18 -9.517140E-01  0.000000E+00
  7.606070E-01  5.456489E-02  5.000000E-01  7.682899E-01  5.515467E-02  0.000000E+00  1.260925E-02 -2.327054E-04 -2.561970E-18 -1.050192E+00  0.000000E+00
  7.442510E-01  5.478156E-02  5.000000E-01  7.517687E-01  5.537353E-02  0.000000E+00  1.845440E-02 -4.497722E-05 -5.569406E-18 -1.081603E+00  0.000000E+00
  7.273250E-01  5.469771E-02  5.000000E-01  7.346718E-01  5.528884E-02  0.000000E+00  2.145711E-02  2.561831E-04 -8.273432E-18 -1.067295E+00  0.000000E+00
  7.098490E-01  5.436582E-02  5.000000E-01  7.170193E-01  5.495359E-02  0.000000E+00  2.167898E-02  4.875256E-04 -1.047969E-17 -1.042302E+00  0.000000E+00
  6.918480E-01  5.388195E-02  5.000000E-01  6.988365E-01  5.446484E-02  0.000000E+00  2.053755E-02  5.378015E-04 -1.185728E-17 -1.031201E+00  0.000000E+00
  6.733520E-01  5.339624E-02  5.000000E-01  6.801537E-01  5.397423E-02  0.000000E+00  1.933111E-02  3.966147E-04 -1.149742E-17 -1.044711E+00  0.000000E+00
  6.543930E-01  5.310824E-02  5.000000E-01  6.610032E-01  5.368332E-02  0.000000E+00  1.875470E-02  1.294268E-04 -8.881453E-18 -1.079365E+00  0.000000E+00
  6.350090E-01  5.313761E-02  5.000000E-01  6.414235E-01  5.371298E-02  0.000000E+00  1.903445E-02 -1.468018E-04 -6.488440E-18 -1.119808E+00  0.000000E+00
  6.152440E-01  5.341706E-02  5.000000E-01  6.214589E-01  5.399526E-02  0.000000E+00  1.996355E-02 -3.486238E-04 -4.293236E-18 -1.151524E+00  0.000000E+00
  5.951420E-01  5.383660E-02  5.000000E-01  6.011539E-01  5.441903E-02  0.000000E+00  2.108747E-02 -4.395236E-04 -3.091299E-18 -1.167553E+00  0.000000E+00
  5.747530E-01  5.426580E-02  5.000000E-01  5.805590E-01  5.485257E-02  0.000000E+00  2.203844E-02 -3.839936E-04 -4.422731E-18 -1.165434E+00  0.000000E+00
  5.541290E-01  5.455993E-02  5.000000E-01  5.597267E-01  5.514967E-02  0.000000E+00  2.264740E-02 -1.704801E-04 -6.500129E-18 -1.146603E+00  0.000000E+00
  5.333260E-01  5.458136E-02  5.000000E-01  5.387136E-01  5.517131E-02  0.000000E+00  2.285316E-02  1.287592E-04 -7.273850E-18 -1.118460E+00  0.000000E+00
  5.124010E-01  5.431940E-02  5.000000E-01  5.175773E-01  5.490671E-02  0.000000E+00  2.270622E-02  4.073027E-04 -6.707905E-18 -1.090542E+00  0.000000E+00
  4.914140E-01  5.382414E-02  5.000000E-01  4.963783E-01  5.440645E-02  0.000000E+00  2.239018E-02  6.211488E-04 -5.038205E-18 -1.068258E+00  0.000000E+00
  4.704230E-01  5.315143E-02  5.000000E-01  4.751754E-01  5.372694E-02  0.000000E+00  2.208384E-02  7.684425E-04 -4.810642E-18 -1.053653E+00  0.000000E+00
  1.696960E-04 -4.810029E-04  5.000000E-01  1.730287E-04 -4.471163E-04  0.000000E+00 -6.436948E-02  9.282105E-02 -6.746432E-14  5.409098E-01  0.000000E+00
  8.054360E-04 -9.781882E-04  5.000000E-01  8.151890E-04 -9.493227E-04  0.000000E+00 -4.693414E-02  3.286241E-02 -5.489917E-14  1.106831E+00  0.000000E+00
  1.973980E-03 -1.585103E-03  5.000000E-01  1.995534E-03 -1.562366E-03  0.000000E+00 -2.105157E-02  1.047956E-02 -3.292039E-14  1.176614E+00  0.000000E+00
  3.614630E-03 -2.299729E-03  5.000000E-01  3.652753E-03 -2.284210E-03  0.000000E+00 -4.055513E-03  1.772930E-03 -1.386077E-14  1.152925E+00  0.000000E+00
  5.721210E-03 -3.130496E-03  5.000000E-01  5.780607E-03 -3.123366E-03  0.000000E+00  5.020158E-03 -1.863725E-03 -2.506400E-15  1.122580E+00  0.000000E+00
  8.297500E-03 -4.074922E-03  5.000000E-01  8.382914E-03 -4.077330E-03  0.000000E+00  9.329678E-03 -3.267916E-03  1.942161E-15  1.078246E+00  0.000000E+00
  1.136560E-02 -5.113402E-03  5.000000E-01  1.148200E-02 -5.126298E-03  0.000000E+00  1.109803E-02 -3.619097E-03  2.471170E-15  1.023817E+00  0.000000E+00
  1.493280E-02 -6.234689E-03  5.000000E-01  1.508522E-02 -6.258908E-03  0.000000E+00  1.169358E-02 -3.584645E-03  1.627921E-15  9.693054E-01  0.000000E+00
  1.899460E-02 -7.447092E-03  5.000000E-01  1.918804E-02 -7.483555E-03  0.000000E+00  1.195001E-02 -3.514719E-03  7.635671E-16  9.186122E-01  0.000000E+00
  2.354800E-02 -8.766663E-03  5.000000E-01  2.378743E-02 -8.816452E-03  0.000000E+00  1.228446E-02 -3.506763E-03  2.632334E-16  8.687307E-01  0.000000E+00
  2.860130E-02 -1.018891E-02  5.000000E-01  2.889176E-02 -1.025306E-02  0.000000E+00  1.281565E-02 -3.545767E-03  4.978760E-17  8.170151E-01  0.000000E+00
  3.416500E-02 -1.170275E-02  5.000000E-01  3.451165E-02 -1.178219E-02  0.000000E+00  1.352512E-02 -3.613179E-03 -2.687742E-17  7.646894E-01  0.000000E+00
  4.024810E-02 -1.329899E-02  5.000000E-01  4.065618E-02 -1.339455E-02  0.000000E+00  1.435421E-02 -3.689795E-03 -4.930140E-17  7.126648E-01  0.000000E+00
  4.686030E-02 -1.496534E-02  5.000000E-01  4.733516E-02 -1.507773E-02  0.000000E+00  1.523853E-02 -3.755779E-03 -4.729950E-17  6.607253E-01  0.000000E+00
  5.401090E-02 -1.669011E-02  5.000000E-01  5.455797E-02 -1.681992E-02  0.000000E+00  1.613133E-02 -3.802737E-03 -3.335174E-17  6.089396E-01  0.000000E+00
  6.170850E-02 -1.846467E-02  5.000000E-01  6.233331E-02 -1.861240E-02  0.000000E+00  1.700702E-02 -3.822344E-03 -1.957948E-17  5.569356E-01  0.000000E+00
  6.996310E-02 -2.027470E-02  5.000000E-01  7.067127E-02 -2.044071E-02  0.000000E+00  1.785182E-02 -3.802094E-03 -1.115894E-17  5.040099E-01  0.000000E+00
  7.878500E-02 -2.210056E-02  5.000000E-01  7.958226E-02 -2.228501E-02  0.000000E+00  1.866263E-02 -3.738373E-03 -3.966378E-18  4.503599E-01  0.000000E+00
  8.818390E-02 -2.392313E-02  5.000000E-01  8.907608E-02 -2.412598E-02  0.000000E+00  1.944087E-02 -3.631270E-03  4.214042E-19  3.964203E-01  0.000000E+00
  9.816930E-02 -2.571985E-02  5.000000E-01  9.916232E-02 -2.594085E-02  0.000000E+00  2.018109E-02 -3.476133E-03  2.007652E-18  3.422515E-01  0.000000E+00
  1.087500E-01 -2.746386E-02  5.000000E-01  1.098499E-01 -2.770247E-02  0.000000E+00  2.086712E-02 -3.269481E-03  3.067841E-18  2.882756E-01  0.000000E+00
  1.199340E-01 -2.912783E-02  5.000000E-01  1.211468E-01 -2.938325E-02  0.000000E+00  2.146409E-02 -3.006297E-03  4.926676E-18  2.351968E-01  0.000000E+00
  1.317280E-01 -3.067971E-02  5.000000E-01  1.330599E-01 -3.095079E-02  0.000000E+00  2.191138E-02 -2.677744E-03  6.097808E-18  1.838633E-01  0.000000E+00
  1.441380E-01 -3.208212E-02  5.000000E-01  1.455952E-01 -3.236737E-02  0.000000E+00  2.213781E-02 -2.283790E-03  4.503392E-18  1.360592E-01  0.000000E+00
  1.441380E-01 -3.208212E-02  5.000000E-01  1.455952E-01 -3.236737E-02  0.000000E+00  2.213781E-02 -2.283790E-03  4.503392E-18  1.360592E-01  0.000000E+00
  1.571670E-01 -3.329862E-02  5.000000E-01  1.587558E-01 -3.359615E-02  0.000000E+00  2.209223E-02 -1.838141E-03  4.948327E-18  9.436148E-02  0.000000E+00
  1.708170E-01 -3.429428E-02  5.000000E-01  1.725437E-01 -3.460187E-02  0.000000E+00  2.178416E-02 -1.370499E-03  7.448003E-18  6.150215E-02  0.000000E+00
  1.850860E-01 -3.504540E-02  5.000000E-01  1.869568E-01 -3.536058E-02  0.000000E+00  2.131746E-02 -9.338211E-04  8.426138E-18  3.983156E-02  0.000000E+00
  1.999720E-01 -3.556057E-02  5.000000E-01  2.019931E-01 -3.588095E-02  0.000000E+00  2.087268E-02 -5.963952E-04  7.818358E-18  3.008353E-02  0.000000E+00
  2.154670E-01 -3.590538E-02  5.000000E-01  2.176446E-01 -3.622924E-02  0.000000E+00  2.059285E-02 -3.845958E-04  5.797256E-18  2.788896E-02  0.000000E+00
  2.315610E-01 -3.615000E-02  5.000000E-01  2.339011E-01 -3.647633E-02  0.000000E+00  2.046554E-02 -2.365476E-04  5.422944E-18  2.317014E-02  0.000000E+00
  2.482400E-01 -3.628609E-02  5.000000E-01  2.507486E-01 -3.661379E-02  0.000000E+00  2.039624E-02 -8.601372E-05  5.125610E-18  1.044699E-02  0.000000E+00
  2.654840E-01 -3.629165E-02  5.000000E-01  2.681667E-01 -3.661942E-02  0.000000E+00  2.031786E-02  8.198897E-05  6.330431E-18 -7.126807E-03  0.000000E+00
  2.832720E-01 -3.614123E-02  5.000000E-01  2.861343E-01 -3.646747E-02  0.000000E+00  2.019300E-02  2.651536E-04  7.960272E-18 -2.452276E-02  0.000000E+00
  3.015770E-01 -3.581352E-02  5.000000E-01  3.046242E-01 -3.613645E-02  0.000000E+00  2.000597E-02  4.540938E-04  6.881144E-18 -3.833246E-02  0.000000E+00
  3.203660E-01 -3.529520E-02  5.000000E-01  3.236030E-01 -3.561290E-02  0.000000E+00  1.975479E-02  6.384374E-04  6.802431E-18 -4.740438E-02  0.000000E+00
  3.396030E-01 -3.458098E-02  5.000000E-01  3.430342E-01 -3.489147E-02  0.000000E+00  1.944281E-02  8.116336E-04  7.771329E-18 -5.208022E-02  0.000000E+00
  3.592490E-01 -3.366886E-02  5.000000E-01  3.628786E-01 -3.397013E-02  0.000000E+00  1.907297E-02  9.716525E-04  6.513025E-18 -5.313230E-02  0.000000E+00
  3.792580E-01 -3.255763E-02  5.000000E-01  3.830897E-01 -3.284768E-02  0.000000E+00  1.864821E-02  1.117233E-03  5.080527E-18 -5.094478E-02  0.000000E+00
  3.995810E-01 -3.124908E-02  5.000000E-01  4.036179E-01 -3.152591E-02  0.000000E+00  1.817246E-02  1.245997E-03  2.520653E-18 -4.543388E-02  0.000000E+00
  4.201670E-01 -2.974917E-02  5.000000E-01  4.244118E-01 -3.001086E-02  0.000000E+00  1.764861E-02  1.356252E-03 -1.034638E-18 -3.650924E-02  0.000000E+00
  4.409600E-01 -2.806589E-02  5.000000E-01  4.454148E-01 -2.831058E-02  0.000000E+00  1.707908E-02  1.447441E-03  3.645741E-19 -2.428691E-02  0.000000E+00
  4.619030E-01 -2.620875E-02  5.000000E-01  4.665693E-01 -2.643469E-02  0.000000E+00  1.647156E-02  1.517635E-03  1.087641E-18 -8.856141E-03  0.000000E+00
  4.829360E-01 -2.419510E-02  5.000000E-01  4.878147E-01 -2.440070E-02  0.000000E+00  1.584039E-02  1.564308E-03 -1.202191E-18  9.602901E-03  0.000000E+00
  5.039990E-01 -2.204879E-02  5.000000E-01  5.090904E-01 -2.223272E-02  0.000000E+00  1.520267E-02  1.586693E-03 -2.502303E-18  3.055050E-02  0.000000E+00
  5.250310E-01 -1.979957E-02  5.000000E-01  5.303348E-01 -1.996078E-02  0.000000E+00  1.457529E-02  1.586202E-03 -2.862226E-18  5.316186E-02  0.000000E+00
  5.459710E-01 -1.747988E-02  5.000000E-01  5.514863E-01 -1.761766E-02  0.000000E+00  1.397320E-02  1.566399E-03 -2.471894E-18  7.649374E-02  0.000000E+00
  5.667600E-01 -1.512104E-02  5.000000E-01  5.724853E-01 -1.523500E-02  0.000000E+00  1.341172E-02  1.530207E-03 -1.522340E-18  9.988800E-02  0.000000E+00
  4.704230E-01  5.315143E-02  5.000000E-01  4.751754E-01  5.372694E-02  0.000000E+00  2.208384E-02  7.684425E-04 -4.810642E-18 -1.053653E+00  0.000000E+00
  4.494880E-01  5.236189E-02  5.000000E-01  4.540289E-01  5.292943E-02  0.000000E+00  2.188910E-02  8.563542E-04 -6.890677E-18 -1.046908E+00  0.000000E+00
  4.286690E-01  5.151609E-02  5.000000E-01  4.329997E-01  5.207509E-02  0.000000E+00  2.185891E-02  9.113302E-04 -9.189679E-18 -1.045615E+00  0.000000E+00
  4.080230E-01  5.063479E-02  5.000000E-01  4.121452E-01  5.118488E-02  0.000000E+00  2.200112E-02  9.727134E-04 -1.058834E-17 -1.045747E+00  0.000000E+00
  3.876050E-01  4.970310E-02  5.000000E-01  3.915210E-01  5.024379E-02  0.000000E+00  2.225400E-02  1.058367E-03 -1.175302E-17 -1.044692E+00  0.000000E+00
  3.674690E-01  4.870773E-02  5.000000E-01  3.711816E-01  4.923837E-02  0.000000E+00  2.252947E-02  1.165323E-03 -1.200170E-17 -1.041780E+00  0.000000E+00
  3.476650E-01  4.763868E-02  5.000000E-01  3.511776E-01  4.815852E-02  0.000000E+00  2.277200E-02  1.289265E-03 -1.287463E-17 -1.037066E+00  0.000000E+00
  3.282390E-01  4.648831E-02  5.000000E-01  3.315555E-01  4.699653E-02  0.000000E+00  2.296488E-02  1.427391E-03 -1.421970E-17 -1.030903E+00  0.000000E+00
  3.092330E-01  4.525144E-02  5.000000E-01  3.123575E-01  4.574718E-02  0.000000E+00  2.311060E-02  1.574550E-03 -1.483814E-17 -1.023932E+00  0.000000E+00
  2.906860E-01  4.393106E-02  5.000000E-01  2.936232E-01  4.441345E-02  0.000000E+00  2.321886E-02  1.725636E-03 -1.424691E-17 -1.016783E+00  0.000000E+00
  2.726330E-01  4.253277E-02  5.000000E-01  2.753879E-01  4.300105E-02  0.000000E+00  2.330199E-02  1.879814E-03 -1.357937E-17 -1.009716E+00  0.000000E+00
  2.551020E-01  4.106207E-02  5.000000E-01  2.576799E-01  4.151550E-02  0.000000E+00  2.336839E-02  2.038188E-03 -1.282890E-17 -1.002734E+00  0.000000E+00
  2.381210E-01  3.952489E-02  5.000000E-01  2.405274E-01  3.996279E-02  0.000000E+00  2.342396E-02  2.204162E-03 -1.258400E-17 -9.956859E-01  0.000000E+00
  2.217090E-01  3.792342E-02  5.000000E-01  2.239496E-01  3.834515E-02  0.000000E+00  2.346848E-02  2.378961E-03 -1.481083E-17 -9.888768E-01  0.000000E+00
  2.058840E-01  3.626016E-02  5.000000E-01  2.079648E-01  3.666509E-02  0.000000E+00  2.348217E-02  2.541340E-03 -1.647657E-17 -9.845173E-01  0.000000E+00
  1.906600E-01  3.456270E-02  5.000000E-01  1.925871E-01  3.495049E-02  0.000000E+00  2.345740E-02  2.655060E-03 -1.836101E-17 -9.859988E-01  0.000000E+00
  1.760460E-01  3.288143E-02  5.000000E-01  1.778255E-01  3.325224E-02  0.000000E+00  2.346107E-02  2.724826E-03 -2.441994E-17 -9.938389E-01  0.000000E+00
  1.620500E-01  3.124045E-02  5.000000E-01  1.636881E-01  3.159469E-02  0.000000E+00  2.358449E-02  2.792735E-03 -3.251203E-17 -1.005283E+00  0.000000E+00
  1.486750E-01  2.964195E-02  5.000000E-01  1.501781E-01  2.998005E-02  0.000000E+00  2.384849E-02  2.888422E-03 -4.413715E-17 -1.017417E+00  0.000000E+00
  1.359210E-01  2.807775E-02  5.000000E-01  1.372953E-01  2.840005E-02  0.000000E+00  2.420289E-02  3.019782E-03 -7.118390E-17 -1.028494E+00  0.000000E+00
  1.237890E-01  2.653904E-02  5.000000E-01  1.250407E-01  2.684580E-02  0.000000E+00  2.457719E-02  3.184196E-03 -1.218867E-16 -1.037872E+00  0.000000E+00
  1.122730E-01  2.501629E-02  5.000000E-01  1.134084E-01  2.530767E-02  0.000000E+00  2.492001E-02  3.376505E-03 -2.036059E-16 -1.045647E+00  0.000000E+00
  1.013710E-01  2.350387E-02  5.000000E-01  1.023964E-01  2.377997E-02  0.000000E+00  2.520857E-02  3.590222E-03 -3.303806E-16 -1.052430E+00  0.000000E+00
  9.107400E-02  2.199974E-02  5.000000E-01  9.199536E-02  2.226066E-02  0.000000E+00  2.544651E-02  3.824552E-03 -5.330273E-16 -1.058797E+00  0.000000E+00
  9.107400E-02  2.199974E-02  5.000000E-01  9.199536E-02  2.226066E-02  0.000000E+00  2.544651E-02  3.824552E-03 -5.330273E-16 -1.058797E+00  0.000000E+00
  8.137660E-02  2.050168E-02  5.000000E-01  8.220003E-02  2.074746E-02  0.000000E+00  2.564190E-02  4.077862E-03 -8.710389E-16 -1.065493E+00  0.000000E+00
  7.227050E-02  1.901209E-02  5.000000E-01  7.300197E-02  1.924283E-02  0.000000E+00  2.579912E-02  4.344222E-03 -1.436620E-15 -1.073533E+00  0.000000E+00
  6.374670E-02  1.753608E-02  5.000000E-01  6.439209E-02  1.775192E-02  0.000000E+00  2.592898E-02  4.624757E-03 -2.387450E-15 -1.083587E+00  0.000000E+00
  5.579720E-02  1.607696E-02  5.000000E-01  5.636231E-02  1.627806E-02  0.000000E+00  2.603211E-02  4.915633E-03 -4.028796E-15 -1.096564E+00  0.000000E+00
  4.841260E-02  1.464326E-02  5.000000E-01  4.890313E-02  1.482989E-02  0.000000E+00  2.610666E-02  5.211591E-03 -6.927443E-15 -1.113452E+00  0.000000E+00
  4.158390E-02  1.324280E-02  5.000000E-01  4.200547E-02  1.341528E-02  0.000000E+00  2.615778E-02  5.519084E-03 -1.194658E-14 -1.134644E+00  0.000000E+00
  3.530370E-02  1.188043E-02  5.000000E-01  3.566185E-02  1.203915E-02  0.000000E+00  2.616651E-02  5.832794E-03 -1.991205E-14 -1.160978E+00  0.000000E+00
  2.956270E-02  1.056567E-02  5.000000E-01  2.986287E-02  1.071112E-02  0.000000E+00  2.610565E-02  6.147904E-03 -3.065041E-14 -1.193119E+00  0.000000E+00
  2.435310E-02  9.305061E-03  5.000000E-01  2.460066E-02  9.437775E-03  0.000000E+00  2.593522E-02  6.476287E-03 -4.171942E-14 -1.230481E+00  0.000000E+00
  1.967110E-02  8.099086E-03  5.000000E-01  1.987137E-02  8.219622E-03  0.000000E+00  2.552071E-02  6.788551E-03 -4.849420E-14 -1.273372E+00  0.000000E+00
  1.550860E-02  6.954914E-03  5.000000E-01  1.566684E-02  7.063895E-03  0.000000E+00  2.468430E-02  7.036251E-03 -4.755866E-14 -1.322099E+00  0.000000E+00
  1.185930E-02  5.876204E-03  5.000000E-01  1.198068E-02  5.974291E-03  0.000000E+00  2.332833E-02  7.212127E-03 -4.131779E-14 -1.374813E+00  0.000000E+00
  8.724160E-03  4.859144E-03  5.000000E-01  8.813883E-03  4.946960E-03  0.000000E+00  2.157870E-02  7.343803E-03 -3.673857E-14 -1.431056E+00  0.000000E+00
  6.091130E-03  3.911927E-03  5.000000E-01  6.154263E-03  3.990177E-03  0.000000E+00  2.032367E-02  7.820610E-03 -3.519456E-14 -1.486231E+00  0.000000E+00
  3.952840E-03  3.037274E-03  5.000000E-01  3.994378E-03  3.106691E-03  0.000000E+00  2.113551E-02  9.733923E-03 -2.438526E-14 -1.523406E+00  0.000000E+00
  2.330070E-03  2.222399E-03  5.000000E-01  2.355220E-03  2.283587E-03  0.000000E+00  2.423886E-02  1.419532E-02  4.245370E-15 -1.531092E+00  0.000000E+00
  1.198080E-03  1.485417E-03  5.000000E-01  1.211798E-03  1.539162E-03  0.000000E+00  2.759974E-02  2.139021E-02  2.945085E-14 -1.519252E+00  0.000000E+00
  5.019560E-04  8.593864E-04  5.000000E-01  5.086442E-04  9.068094E-04  0.000000E+00  3.041185E-02  3.350394E-02  1.553576E-14 -1.530796E+00  0.000000E+00
  1.313430E-04  3.762231E-04  5.000000E-01  1.342884E-04  4.187666E-04  0.000000E+00  3.506374E-02  7.036343E-02 -3.878896E-14 -1.566090E+00  0.000000E+00
  8.078190E-06  6.807259E-05  5.000000E-01  9.778777E-06  1.075042E-04  0.000000E+00  3.054299E-02  1.732853E-01 -7.397709E-14 -1.484758E+00  0.000000E+00
 -1.602820E-06 -3.835678E-05  5.000000E-01  0.000000E+00  0.000000E+00  0.000000E+00 -4.944341E-03  2.521464E-01 -6.717005E-14 -1.190863E+00  0.000000E+00
  9.141860E-06 -1.484077E-04  5.000000E-01  1.085319E-05 -1.111623E-04  0.000000E+00 -4.976277E-02  1.967992E-01 -6.409003E-14 -4.687327E-01  0.000000E+00