 Title = "ADflow Slice Data"
Variables =  "CoordinateX"  "CoordinateY"  "CoordinateZ"  "XoC"  "YoC"  "ZoC" "VelocityX" "VelocityY" "VelocityZ" "CoefPressure" "Mach" 
Zone T= "Slice_0001 None Absolute Regular z = 0.50000000"
 Nodes =          192  Elements=          184  ZONETYPE=FELINESEG
 DATAPACKING=POINT
  5.667600E-01 -1.511052E-02  5.000000E-01  5.724853E-01 -1.522413E-02  0.000000E+00  1.340205E-02  1.529659E-03  2.515583E-19  1.002991E-01  0.000000E+00
  5.873410E-01 -1.274881E-02  5.000000E-01  5.932741E-01 -1.283856E-02  0.000000E+00  1.289810E-02  1.478670E-03 -3.931957E-18  1.232539E-01  0.000000E+00
  6.076580E-01 -1.042205E-02  5.000000E-01  6.137963E-01 -1.048831E-02  0.000000E+00  1.245634E-02  1.417143E-03 -6.932213E-18  1.451107E-01  0.000000E+00
  6.276600E-01 -8.162300E-03  5.000000E-01  6.340003E-01 -8.205736E-03  0.000000E+00  1.207392E-02  1.349148E-03 -7.252657E-18  1.653313E-01  0.000000E+00
  6.472970E-01 -5.993607E-03  5.000000E-01  6.538356E-01 -6.015142E-03  0.000000E+00  1.174102E-02  1.279528E-03 -6.586528E-18  1.835796E-01  0.000000E+00
  6.665260E-01 -3.927464E-03  5.000000E-01  6.732588E-01 -3.928133E-03  0.000000E+00  1.144729E-02  1.210730E-03 -5.444786E-18  2.000713E-01  0.000000E+00
  6.853050E-01 -1.973354E-03  5.000000E-01  6.922274E-01 -1.954289E-03  0.000000E+00  1.118674E-02  1.140130E-03 -3.790554E-18  2.156024E-01  0.000000E+00
  7.035980E-01 -1.484680E-04  5.000000E-01  7.107052E-01 -1.109734E-04  0.000000E+00  1.094950E-02  1.065071E-03 -6.316716E-19  2.305094E-01  0.000000E+00
  7.213750E-01  1.535257E-03  5.000000E-01  7.286617E-01  1.589756E-03  0.000000E+00  1.071305E-02  9.859731E-04  3.772982E-18  2.444499E-01  0.000000E+00
  7.386080E-01  3.073548E-03  5.000000E-01  7.460687E-01  3.143582E-03  0.000000E+00  1.044849E-02  9.049687E-04  7.178684E-18  2.573433E-01  0.000000E+00
  7.552750E-01  4.471504E-03  5.000000E-01  7.629040E-01  4.555655E-03  0.000000E+00  1.013780E-02  8.263067E-04  1.067550E-17  2.696179E-01  0.000000E+00
  7.713580E-01  5.741954E-03  5.000000E-01  7.791495E-01  5.838935E-03  0.000000E+00  9.793785E-03  7.517990E-04  1.340347E-17  2.818320E-01  0.000000E+00
  7.868410E-01  6.895865E-03  5.000000E-01  7.947888E-01  7.004499E-03  0.000000E+00  9.483439E-03  6.641234E-04  1.611139E-17  2.957095E-01  0.000000E+00
  8.017160E-01  7.873254E-03  5.000000E-01  8.098140E-01  7.991759E-03  0.000000E+00  9.307913E-03  5.403925E-04  1.889973E-17  3.115889E-01  0.000000E+00
  8.159740E-01  8.590733E-03  5.000000E-01  8.242160E-01  8.716483E-03  0.000000E+00  9.330857E-03  3.860531E-04  2.088778E-17  3.245031E-01  0.000000E+00
  8.296120E-01  9.030642E-03  5.000000E-01  8.379918E-01  9.160835E-03  0.000000E+00  9.556048E-03  2.187601E-04  2.184982E-17  3.295842E-01  0.000000E+00
  8.426300E-01  9.209225E-03  5.000000E-01  8.511412E-01  9.341222E-03  0.000000E+00  9.960063E-03  4.532729E-05  2.157309E-17  3.267755E-01  0.000000E+00
  8.550290E-01  9.157840E-03  5.000000E-01  8.636654E-01  9.289317E-03  0.000000E+00  1.051463E-02 -1.332499E-04  2.076452E-17  3.180621E-01  0.000000E+00
  8.668160E-01  8.914203E-03  5.000000E-01  8.755715E-01  9.043220E-03  0.000000E+00  1.119080E-02 -3.158290E-04  1.909790E-17  3.047933E-01  0.000000E+00
  8.779950E-01  8.519569E-03  5.000000E-01  8.868634E-01  8.644601E-03  0.000000E+00  1.195873E-02 -4.998544E-04  1.671277E-17  2.875300E-01  0.000000E+00
  8.885730E-01  8.013205E-03  5.000000E-01  8.975482E-01  8.133124E-03  0.000000E+00  1.278912E-02 -6.827496E-04  1.470575E-17  2.668604E-01  0.000000E+00
  8.985610E-01  7.428477E-03  5.000000E-01  9.076371E-01  7.542491E-03  0.000000E+00  1.364938E-02 -8.577660E-04  1.234728E-17  2.433061E-01  0.000000E+00
  9.079670E-01  6.799156E-03  5.000000E-01  9.171381E-01  6.906814E-03  0.000000E+00  1.450022E-02 -1.012535E-03  8.954676E-18  2.173290E-01  0.000000E+00
  9.168010E-01  6.157746E-03  5.000000E-01  9.260613E-01  6.258926E-03  0.000000E+00  1.530403E-02 -1.137910E-03  4.987691E-18  1.899869E-01  0.000000E+00
  9.168010E-01  6.157746E-03  5.000000E-01  9.260613E-01  6.258926E-03  0.000000E+00  1.530403E-02 -1.137910E-03  4.987691E-18  1.899869E-01  0.000000E+00
  9.250730E-01  5.529049E-03  5.000000E-01  9.344168E-01  5.623881E-03  0.000000E+00  1.603760E-02 -1.235126E-03  6.152829E-18  1.628043E-01  0.000000E+00
  9.327940E-01  4.927306E-03  5.000000E-01  9.422158E-01  5.016060E-03  0.000000E+00  1.670044E-02 -1.315884E-03  8.942701E-18  1.370948E-01  0.000000E+00
  9.399760E-01  4.355792E-03  5.000000E-01  9.494703E-01  4.438774E-03  0.000000E+00  1.730878E-02 -1.391721E-03  9.922853E-18  1.131272E-01  0.000000E+00
  9.466320E-01  3.815209E-03  5.000000E-01  9.561935E-01  3.892732E-03  0.000000E+00  1.788276E-02 -1.467169E-03  1.524682E-17  9.016363E-02  0.000000E+00
  9.527730E-01  3.306378E-03  5.000000E-01  9.623965E-01  3.378763E-03  0.000000E+00  1.844710E-02 -1.548723E-03  2.539273E-17  6.766469E-02  0.000000E+00
  9.584110E-01  2.827161E-03  5.000000E-01  9.680915E-01  2.894706E-03  0.000000E+00  1.903447E-02 -1.647030E-03  3.724196E-17  4.539799E-02  0.000000E+00
  9.635570E-01  2.374323E-03  5.000000E-01  9.732895E-01  2.437295E-03  0.000000E+00  1.967878E-02 -1.767970E-03  3.890761E-17  2.264584E-02  0.000000E+00
  9.682220E-01  1.946797E-03  5.000000E-01  9.780016E-01  2.005452E-03  0.000000E+00  2.041217E-02 -1.912180E-03  5.984132E-18 -1.680373E-03  0.000000E+00
  9.724140E-01  1.545863E-03  5.000000E-01  9.822359E-01  1.600468E-03  0.000000E+00  2.128266E-02 -2.087665E-03 -9.786846E-17 -2.821131E-02  0.000000E+00
  9.761430E-01  1.171443E-03  5.000000E-01  9.860026E-01  1.222267E-03  0.000000E+00  2.237237E-02 -2.311587E-03 -3.271090E-16 -5.739928E-02  0.000000E+00
  9.794160E-01  8.242727E-04  5.000000E-01  9.893086E-01  8.715908E-04  0.000000E+00  2.378332E-02 -2.597369E-03 -7.908274E-16 -9.032557E-02  0.000000E+00
  9.822400E-01  5.074310E-04  5.000000E-01  9.921611E-01  5.515494E-04  0.000000E+00  2.556644E-02 -2.947204E-03 -1.720015E-15 -1.284435E-01  0.000000E+00
  9.846200E-01  2.260663E-04  5.000000E-01  9.945652E-01  2.673432E-04  0.000000E+00  2.759070E-02 -3.347878E-03 -3.403211E-15 -1.721022E-01  0.000000E+00
  9.865620E-01 -1.453517E-05  5.000000E-01  9.965268E-01  2.431196E-05  0.000000E+00  2.940973E-02 -3.711603E-03 -5.790984E-15 -2.194110E-01  0.000000E+00
  9.880680E-01 -2.086054E-04  5.000000E-01  9.980480E-01 -1.717182E-04  0.000000E+00  2.987576E-02 -3.826726E-03 -1.190565E-14 -2.766201E-01  0.000000E+00
  9.891420E-01 -3.514235E-04  5.000000E-01  9.991328E-01 -3.159786E-04  0.000000E+00  2.812862E-02 -3.911170E-03 -3.898742E-14 -3.435050E-01  0.000000E+00
  9.897860E-01 -4.389484E-04  5.000000E-01  9.997833E-01 -4.043874E-04  0.000000E+00  3.788641E-02 -4.013308E-03 -1.761739E-13 -2.894010E-01  0.000000E+00
  9.900000E-01 -4.683020E-04  5.000000E-01  9.999995E-01 -4.340374E-04  0.000000E+00  2.618860E-02  5.267599E-03 -6.684421E-14 -5.820258E-01  0.000000E+00
  9.900000E-01 -1.843752E-04  5.000000E-01  9.999995E-01 -1.472432E-04  0.000000E+00  1.229789E-03 -7.885282E-03  5.709540E-16 -8.088192E-01  0.000000E+00
  9.900000E-01  9.955170E-05  5.000000E-01  9.999995E-01  1.395510E-04  0.000000E+00 -4.468950E-04 -2.274871E-02 -1.221909E-13 -6.283690E-01  0.000000E+00
  9.900000E-01  3.834786E-04  5.000000E-01  9.999995E-01  4.263452E-04  0.000000E+00 -1.436027E-04 -8.862936E-03 -6.193424E-14 -6.283247E-01  0.000000E+00
  9.900000E-01  6.674054E-04  5.000000E-01  9.999995E-01  7.131394E-04  0.000000E+00  4.646644E-04 -5.229885E-03 -2.602068E-14 -6.882058E-01  0.000000E+00
  9.900000E-01  9.513323E-04  5.000000E-01  9.999995E-01  9.999336E-04  0.000000E+00  6.797425E-03 -6.632457E-03 -7.372649E-15 -6.299546E-01  0.000000E+00
  9.900000E-01  9.513323E-04  5.000000E-01  9.999995E-01  9.999336E-04  0.000000E+00  6.797425E-03 -6.632457E-03 -7.372649E-15 -6.299546E-01  0.000000E+00
  9.897890E-01  1.017904E-03  5.000000E-01  9.997864E-01  1.067178E-03  0.000000E+00  9.015899E-03 -3.469634E-03  2.287305E-15 -5.523940E-01  0.000000E+00
  9.891540E-01  1.218674E-03  5.000000E-01  9.991450E-01  1.269975E-03  0.000000E+00  4.567888E-03 -1.351314E-03  2.339051E-15 -5.709964E-01  0.000000E+00
  9.880950E-01  1.555408E-03  5.000000E-01  9.980753E-01  1.610110E-03  0.000000E+00  3.024914E-03 -9.609639E-04  1.117955E-15 -5.705563E-01  0.000000E+00
  9.866100E-01  2.031334E-03  5.000000E-01  9.965753E-01  2.090842E-03  0.000000E+00  1.983888E-03 -6.498219E-04  3.666329E-16 -5.626563E-01  0.000000E+00
  9.846960E-01  2.650664E-03  5.000000E-01  9.946419E-01  2.716426E-03  0.000000E+00  9.960384E-04 -3.235055E-04  1.444753E-16 -5.590182E-01  0.000000E+00
  9.823490E-01  3.418253E-03  5.000000E-01  9.922712E-01  3.491767E-03  0.000000E+00  1.851107E-04 -5.922673E-05  1.024554E-16 -5.580385E-01  0.000000E+00
  9.795670E-01  4.338751E-03  5.000000E-01  9.894611E-01  4.421561E-03  0.000000E+00 -4.277178E-04  1.426945E-04  6.368371E-17 -5.582801E-01  0.000000E+00
  9.763420E-01  5.417937E-03  5.000000E-01  9.862036E-01  5.511646E-03  0.000000E+00 -8.715114E-04  2.932578E-04  2.166865E-17 -5.597244E-01  0.000000E+00
  9.726710E-01  6.659547E-03  5.000000E-01  9.824955E-01  6.765795E-03  0.000000E+00 -1.170577E-03  3.976871E-04 -4.302236E-18 -5.622580E-01  0.000000E+00
  9.685460E-01  8.066757E-03  5.000000E-01  9.783288E-01  8.187216E-03  0.000000E+00 -1.342195E-03  4.594650E-04 -1.181424E-17 -5.654612E-01  0.000000E+00
  9.639600E-01  9.641712E-03  5.000000E-01  9.736965E-01  9.778076E-03  0.000000E+00 -1.402996E-03  4.831553E-04 -9.513877E-18 -5.688264E-01  0.000000E+00
  9.589060E-01  1.138656E-02  5.000000E-01  9.685915E-01  1.154054E-02  0.000000E+00 -1.373387E-03  4.750264E-04 -5.956818E-18 -5.718776E-01  0.000000E+00
  9.533750E-01  1.330248E-02  5.000000E-01  9.630046E-01  1.347581E-02  0.000000E+00 -1.279227E-03  4.434034E-04 -3.172133E-18 -5.742511E-01  0.000000E+00
  9.473580E-01  1.538822E-02  5.000000E-01  9.569269E-01  1.558262E-02  0.000000E+00 -1.150341E-03  3.984348E-04 -1.723224E-18 -5.757617E-01  0.000000E+00
  9.408450E-01  1.764046E-02  5.000000E-01  9.503481E-01  1.785761E-02  0.000000E+00 -1.016941E-03  3.508179E-04 -3.143397E-19 -5.764387E-01  0.000000E+00
  9.338260E-01  2.005391E-02  5.000000E-01  9.432582E-01  2.029542E-02  0.000000E+00 -9.057238E-04  3.100479E-04  4.678107E-19 -5.765104E-01  0.000000E+00
  9.262910E-01  2.262011E-02  5.000000E-01  9.356471E-01  2.288754E-02  0.000000E+00 -8.372704E-04  2.831547E-04 -2.596020E-19 -5.763294E-01  0.000000E+00
  9.182290E-01  2.532625E-02  5.000000E-01  9.275037E-01  2.562101E-02  0.000000E+00 -8.254904E-04  2.742219E-04 -1.895919E-19 -5.762661E-01  0.000000E+00
  9.096280E-01  2.815462E-02  5.000000E-01  9.188158E-01  2.847794E-02  0.000000E+00 -8.780727E-04  2.844922E-04 -2.082895E-19 -5.766812E-01  0.000000E+00
  9.004770E-01  3.108173E-02  5.000000E-01  9.095724E-01  3.143462E-02  0.000000E+00 -9.968483E-04  3.125889E-04  5.671487E-20 -5.778898E-01  0.000000E+00
  8.907650E-01  3.407666E-02  5.000000E-01  8.997623E-01  3.445979E-02  0.000000E+00 -1.179032E-03  3.541945E-04 -5.468185E-19 -5.799772E-01  0.000000E+00
  8.804800E-01  3.709801E-02  5.000000E-01  8.893735E-01  3.751165E-02  0.000000E+00 -1.417790E-03  4.016460E-04 -6.228214E-19 -5.828437E-01  0.000000E+00
  8.696090E-01  4.009001E-02  5.000000E-01  8.783927E-01  4.053387E-02  0.000000E+00 -1.698846E-03  4.455038E-04 -4.747074E-18 -5.864245E-01  0.000000E+00
  8.696090E-01  4.009001E-02  5.000000E-01  8.783927E-01  4.053387E-02  0.000000E+00 -1.698846E-03  4.455038E-04 -4.747074E-18 -5.864245E-01  0.000000E+00
  8.581400E-01  4.298061E-02  5.000000E-01  8.668079E-01  4.345366E-02  0.000000E+00 -2.002166E-03  4.768413E-04 -1.213579E-17 -5.897327E-01  0.000000E+00
  8.460600E-01  4.568563E-02  5.000000E-01  8.546059E-01  4.618599E-02  0.000000E+00 -2.309972E-03  4.855109E-04 -1.931831E-17 -5.905678E-01  0.000000E+00
  8.333640E-01  4.812520E-02  5.000000E-01  8.417817E-01  4.865020E-02  0.000000E+00 -2.567300E-03  4.509481E-04 -2.943185E-17 -5.921147E-01  0.000000E+00
  8.200460E-01  5.022376E-02  5.000000E-01  8.283292E-01  5.076996E-02  0.000000E+00 -2.541110E-03  3.449729E-04 -4.136349E-17 -6.136114E-01  0.000000E+00
  8.061050E-01  5.191389E-02  5.000000E-01  8.142474E-01  5.247715E-02  0.000000E+00 -1.650206E-03  1.623430E-04 -5.513167E-17 -6.843010E-01  0.000000E+00
  7.915460E-01  5.316987E-02  5.000000E-01  7.995413E-01  5.374582E-02  0.000000E+00  9.877084E-04 -5.224854E-05 -6.927397E-17 -8.102513E-01  0.000000E+00
  7.763770E-01  5.403093E-02  5.000000E-01  7.842191E-01  5.461557E-02  0.000000E+00  5.983570E-03 -2.163378E-04 -7.695402E-17 -9.515928E-01  0.000000E+00
  7.606070E-01  5.456640E-02  5.000000E-01  7.682899E-01  5.515646E-02  0.000000E+00  1.260106E-02 -2.328953E-04 -7.092052E-17 -1.050155E+00  0.000000E+00
  7.442510E-01  5.478362E-02  5.000000E-01  7.517687E-01  5.537587E-02  0.000000E+00  1.844864E-02 -4.558910E-05 -5.833637E-17 -1.081655E+00  0.000000E+00
  7.273250E-01  5.470044E-02  5.000000E-01  7.346718E-01  5.529185E-02  0.000000E+00  2.145542E-02  2.552885E-04 -4.445160E-17 -1.067406E+00  0.000000E+00
  7.098490E-01  5.436932E-02  5.000000E-01  7.170193E-01  5.495738E-02  0.000000E+00  2.168056E-02  4.865753E-04 -2.919682E-17 -1.042442E+00  0.000000E+00
  6.918480E-01  5.388630E-02  5.000000E-01  6.988365E-01  5.446948E-02  0.000000E+00  2.054081E-02  5.369196E-04 -1.786599E-17 -1.031351E+00  0.000000E+00
  6.733520E-01  5.340146E-02  5.000000E-01  6.801537E-01  5.397975E-02  0.000000E+00  1.933496E-02  3.958199E-04 -1.445544E-17 -1.044855E+00  0.000000E+00
  6.543930E-01  5.311428E-02  5.000000E-01  6.610032E-01  5.368967E-02  0.000000E+00  1.875868E-02  1.287195E-04 -1.562269E-17 -1.079490E+00  0.000000E+00
  6.350090E-01  5.314433E-02  5.000000E-01  6.414235E-01  5.372002E-02  0.000000E+00  1.903837E-02 -1.473694E-04 -1.708086E-17 -1.119901E+00  0.000000E+00
  6.152440E-01  5.342421E-02  5.000000E-01  6.214589E-01  5.400273E-02  0.000000E+00  1.996726E-02 -3.489328E-04 -1.841086E-17 -1.151572E+00  0.000000E+00
  5.951420E-01  5.384381E-02  5.000000E-01  6.011539E-01  5.442657E-02  0.000000E+00  2.109074E-02 -4.394126E-04 -1.958263E-17 -1.167544E+00  0.000000E+00
  5.747530E-01  5.427262E-02  5.000000E-01  5.805590E-01  5.485970E-02  0.000000E+00  2.204106E-02 -3.832949E-04 -2.061830E-17 -1.165359E+00  0.000000E+00
  5.541290E-01  5.456577E-02  5.000000E-01  5.597267E-01  5.515582E-02  0.000000E+00  2.264915E-02 -1.690818E-04 -2.195655E-17 -1.146452E+00  0.000000E+00
  5.333260E-01  5.458559E-02  5.000000E-01  5.387136E-01  5.517584E-02  0.000000E+00  2.285374E-02  1.307818E-04 -2.279345E-17 -1.118238E+00  0.000000E+00
  5.124010E-01  5.432154E-02  5.000000E-01  5.175773E-01  5.490912E-02  0.000000E+00  2.270530E-02  4.096765E-04 -2.235602E-17 -1.090269E+00  0.000000E+00
  4.914140E-01  5.382395E-02  5.000000E-01  4.963783E-01  5.440650E-02  0.000000E+00  2.238767E-02  6.235648E-04 -1.975673E-17 -1.067962E+00  0.000000E+00
  4.704230E-01  5.314889E-02  5.000000E-01  4.751754E-01  5.372463E-02  0.000000E+00  2.207991E-02  7.706451E-04 -9.277101E-18 -1.053366E+00  0.000000E+00
  1.696960E-04 -4.812944E-04  5.000000E-01  1.730287E-04 -4.471610E-04  0.000000E+00 -6.436597E-02  9.283062E-02 -9.243432E-14  5.406819E-01  0.000000E+00
  8.054360E-04 -9.786407E-04  5.000000E-01  8.151890E-04 -9.495299E-04  0.000000E+00 -4.693648E-02  3.287539E-02 -7.555721E-14  1.106682E+00  0.000000E+00
  1.973980E-03 -1.585852E-03  5.000000E-01  1.995534E-03 -1.562874E-03  0.000000E+00 -2.105815E-02  1.048806E-02 -1.940116E-14  1.176587E+00  0.000000E+00
  3.614630E-03 -2.300899E-03  5.000000E-01  3.652753E-03 -2.285142E-03  0.000000E+00 -4.062779E-03  1.776994E-03 -2.128861E-15  1.152971E+00  0.000000E+00
  5.721210E-03 -3.132209E-03  5.000000E-01  5.780607E-03 -3.124847E-03  0.000000E+00  5.013619E-03 -1.862537E-03  2.372193E-15  1.122665E+00  0.000000E+00
  8.297500E-03 -4.077305E-03  5.000000E-01  8.382914E-03 -4.079487E-03  0.000000E+00  9.324082E-03 -3.268368E-03  3.116042E-15  1.078355E+00  0.000000E+00
  1.136560E-02 -5.116586E-03  5.000000E-01  1.148200E-02 -5.129264E-03  0.000000E+00  1.109333E-02 -3.620455E-03  2.092642E-15  1.023941E+00  0.000000E+00
  1.493280E-02 -6.238805E-03  5.000000E-01  1.508522E-02 -6.262816E-03  0.000000E+00  1.168963E-02 -3.586487E-03  9.093854E-16  9.694353E-01  0.000000E+00
  1.899460E-02 -7.452270E-03  5.000000E-01  1.918804E-02 -7.488535E-03  0.000000E+00  1.194661E-02 -3.516843E-03  3.026454E-16  9.187392E-01  0.000000E+00
  2.354800E-02 -8.773029E-03  5.000000E-01  2.378743E-02 -8.822632E-03  0.000000E+00  1.228150E-02 -3.509118E-03  2.091483E-16  8.688495E-01  0.000000E+00
  2.860130E-02 -1.019659E-02  5.000000E-01  2.889176E-02 -1.026057E-02  0.000000E+00  1.281311E-02 -3.548383E-03  3.394126E-16  8.171215E-01  0.000000E+00
  3.416500E-02 -1.171186E-02  5.000000E-01  3.451165E-02 -1.179115E-02  0.000000E+00  1.352309E-02 -3.616106E-03  4.932594E-16  7.647788E-01  0.000000E+00
  4.024810E-02 -1.330966E-02  5.000000E-01  4.065618E-02 -1.340508E-02  0.000000E+00  1.435283E-02 -3.693073E-03  5.992467E-16  7.127317E-01  0.000000E+00
  4.686030E-02 -1.497767E-02  5.000000E-01  4.733516E-02 -1.508993E-02  0.000000E+00  1.523797E-02 -3.759427E-03  6.545807E-16  6.607639E-01  0.000000E+00
  5.401090E-02 -1.670420E-02  5.000000E-01  5.455797E-02 -1.683390E-02  0.000000E+00  1.613174E-02 -3.806747E-03  6.747621E-16  6.089439E-01  0.000000E+00
  6.170850E-02 -1.848060E-02  5.000000E-01  6.233331E-02 -1.862824E-02  0.000000E+00  1.700854E-02 -3.826688E-03  6.727721E-16  5.568987E-01  0.000000E+00
  6.996310E-02 -2.029254E-02  5.000000E-01  7.067127E-02 -2.045848E-02  0.000000E+00  1.785460E-02 -3.806727E-03  6.523488E-16  5.039240E-01  0.000000E+00
  7.878500E-02 -2.212036E-02  5.000000E-01  7.958226E-02 -2.230476E-02  0.000000E+00  1.866681E-02 -3.743230E-03  6.133232E-16  4.502162E-01  0.000000E+00
  8.818390E-02 -2.394490E-02  5.000000E-01  8.907608E-02 -2.414772E-02  0.000000E+00  1.944664E-02 -3.636273E-03  5.532033E-16  3.962086E-01  0.000000E+00
  9.816930E-02 -2.574356E-02  5.000000E-01  9.916232E-02 -2.596455E-02  0.000000E+00  2.018867E-02 -3.481182E-03  4.718930E-16  3.419599E-01  0.000000E+00
  1.087500E-01 -2.748944E-02  5.000000E-01  1.098499E-01 -2.772806E-02  0.000000E+00  2.087676E-02 -3.274443E-03  3.718120E-16  2.878910E-01  0.000000E+00
  1.199340E-01 -2.915515E-02  5.000000E-01  1.211468E-01 -2.941059E-02  0.000000E+00  2.147608E-02 -3.010994E-03  2.523552E-16  2.347050E-01  0.000000E+00
  1.317280E-01 -3.070852E-02  5.000000E-01  1.330599E-01 -3.097965E-02  0.000000E+00  2.192592E-02 -2.681930E-03  1.328824E-16  1.832503E-01  0.000000E+00
  1.441380E-01 -3.211210E-02  5.000000E-01  1.455952E-01 -3.239740E-02  0.000000E+00  2.215483E-02 -2.287136E-03 -3.044717E-17  1.353144E-01  0.000000E+00
  1.441380E-01 -3.211210E-02  5.000000E-01  1.455952E-01 -3.239740E-02  0.000000E+00  2.215483E-02 -2.287136E-03 -3.044717E-17  1.353144E-01  0.000000E+00
  1.571670E-01 -3.332927E-02  5.000000E-01  1.587558E-01 -3.362686E-02  0.000000E+00  2.211120E-02 -1.840257E-03 -2.115612E-16  9.348261E-02  0.000000E+00
  1.708170E-01 -3.432491E-02  5.000000E-01  1.725437E-01 -3.463256E-02  0.000000E+00  2.180388E-02 -1.370981E-03 -3.554990E-16  6.050327E-02  0.000000E+00
  1.850860E-01 -3.507506E-02  5.000000E-01  1.869568E-01 -3.539028E-02  0.000000E+00  2.133602E-02 -9.323342E-04 -4.563421E-16  3.875104E-02  0.000000E+00
  1.999720E-01 -3.558801E-02  5.000000E-01  2.019931E-01 -3.590841E-02  0.000000E+00  2.088764E-02 -5.927339E-04 -4.855844E-16  2.898867E-02  0.000000E+00
  2.154670E-01 -3.592902E-02  5.000000E-01  2.176446E-01 -3.625287E-02  0.000000E+00  2.060145E-02 -3.787188E-04 -4.712183E-16  2.687525E-02  0.000000E+00
  2.315610E-01 -3.616811E-02  5.000000E-01  2.339011E-01 -3.649437E-02  0.000000E+00  2.046500E-02 -2.286681E-04 -4.447044E-16  2.235421E-02  0.000000E+00
  2.482400E-01 -3.629706E-02  5.000000E-01  2.507486E-01 -3.662463E-02  0.000000E+00  2.038431E-02 -7.669447E-05 -4.181029E-16  9.949649E-03  0.000000E+00
  2.654840E-01 -3.629428E-02  5.000000E-01  2.681667E-01 -3.662182E-02  0.000000E+00  2.029388E-02  9.179914E-05 -3.865911E-16 -7.197535E-03  0.000000E+00
  2.832720E-01 -3.613504E-02  5.000000E-01  2.861343E-01 -3.646097E-02  0.000000E+00  2.015903E-02  2.741555E-04 -3.503346E-16 -2.409088E-02  0.000000E+00
  3.015770E-01 -3.579919E-02  5.000000E-01  3.046242E-01 -3.612173E-02  0.000000E+00  1.996744E-02  4.607922E-04 -3.091260E-16 -3.738806E-02  0.000000E+00
  3.203660E-01 -3.527495E-02  5.000000E-01  3.236030E-01 -3.559220E-02  0.000000E+00  1.971966E-02  6.414613E-04 -2.614989E-16 -4.604108E-02  0.000000E+00
  3.396030E-01 -3.455876E-02  5.000000E-01  3.430342E-01 -3.486877E-02  0.000000E+00  1.941875E-02  8.106011E-04 -2.093436E-16 -5.054162E-02  0.000000E+00
  3.592490E-01 -3.364892E-02  5.000000E-01  3.628786E-01 -3.394974E-02  0.000000E+00  1.906424E-02  9.676895E-04 -1.562630E-16 -5.177743E-02  0.000000E+00
  3.792580E-01 -3.254294E-02  5.000000E-01  3.830897E-01 -3.283260E-02  0.000000E+00  1.865475E-02  1.112144E-03 -1.063027E-16 -5.007578E-02  0.000000E+00
  3.995810E-01 -3.124108E-02  5.000000E-01  4.036179E-01 -3.151758E-02  0.000000E+00  1.819046E-02  1.241406E-03 -6.362366E-17 -4.517042E-02  0.000000E+00
  4.201670E-01 -2.974759E-02  5.000000E-01  4.244118E-01 -3.000901E-02  0.000000E+00  1.767160E-02  1.353410E-03 -3.246775E-17 -3.679550E-02  0.000000E+00
  4.409600E-01 -2.806863E-02  5.000000E-01  4.454148E-01 -2.831310E-02  0.000000E+00  1.709991E-02  1.447001E-03 -1.188146E-17 -2.493759E-02  0.000000E+00
  4.619030E-01 -2.621238E-02  5.000000E-01  4.665693E-01 -2.643810E-02  0.000000E+00  1.648511E-02  1.519189E-03 -1.428564E-20 -9.587958E-03  0.000000E+00
  4.829360E-01 -2.419687E-02  5.000000E-01  4.878147E-01 -2.440224E-02  0.000000E+00  1.584488E-02  1.566736E-03  4.860307E-18  9.061434E-03  0.000000E+00
  5.039990E-01 -2.204708E-02  5.000000E-01  5.090904E-01 -2.223074E-02  0.000000E+00  1.519906E-02  1.588999E-03  6.437071E-18  3.033104E-02  0.000000E+00
  5.250310E-01 -1.979392E-02  5.000000E-01  5.303348E-01 -1.995482E-02  0.000000E+00  1.456633E-02  1.587734E-03  5.047065E-18  5.325553E-02  0.000000E+00
  5.459710E-01 -1.747097E-02  5.000000E-01  5.514863E-01 -1.760842E-02  0.000000E+00  1.396240E-02  1.566835E-03  3.040464E-18  7.681122E-02  0.000000E+00
  5.667600E-01 -1.511052E-02  5.000000E-01  5.724853E-01 -1.522413E-02  0.000000E+00  1.340205E-02  1.529659E-03  2.515583E-19  1.002991E-01  0.000000E+00
  4.704230E-01  5.314889E-02  5.000000E-01  4.751754E-01  5.372463E-02  0.000000E+00  2.207991E-02  7.706451E-04 -9.277101E-18 -1.053366E+00  0.000000E+00
  4.494880E-01  5.235725E-02  5.000000E-01  4.540289E-01  5.292499E-02  0.000000E+00  2.188417E-02  8.581463E-04 -4.526113E-19 -1.046660E+00  0.000000E+00
  4.286690E-01  5.150976E-02  5.000000E-01  4.329997E-01  5.206895E-02  0.000000E+00  2.185356E-02  9.125959E-04  2.920414E-19 -1.045430E+00  0.000000E+00
  4.080230E-01  5.062732E-02  5.000000E-01  4.121452E-01  5.117759E-02  0.000000E+00  2.199601E-02  9.734201E-04 -5.250693E-19 -1.045637E+00  0.000000E+00
  3.876050E-01  4.969504E-02  5.000000E-01  3.915210E-01  5.023590E-02  0.000000E+00  2.224966E-02  1.058503E-03 -3.760281E-18 -1.044663E+00  0.000000E+00
  3.674690E-01  4.869963E-02  5.000000E-01  3.711816E-01  4.923044E-02  0.000000E+00  2.252628E-02  1.164864E-03 -8.309910E-18 -1.041836E+00  0.000000E+00
  3.476650E-01  4.763112E-02  5.000000E-01  3.511776E-01  4.815114E-02  0.000000E+00  2.277018E-02  1.288192E-03 -1.387742E-17 -1.037208E+00  0.000000E+00
  3.282390E-01  4.648186E-02  5.000000E-01  3.315555E-01  4.699027E-02  0.000000E+00  2.296468E-02  1.425779E-03 -1.912449E-17 -1.031123E+00  0.000000E+00
  3.092330E-01  4.524656E-02  5.000000E-01  3.123575E-01  4.574250E-02  0.000000E+00  2.311236E-02  1.572730E-03 -2.198579E-17 -1.024194E+00  0.000000E+00
  2.906860E-01  4.392778E-02  5.000000E-01  2.936232E-01  4.441040E-02  0.000000E+00  2.322263E-02  1.724107E-03 -2.209964E-17 -1.017033E+00  0.000000E+00
  2.726330E-01  4.253076E-02  5.000000E-01  2.753879E-01  4.299927E-02  0.000000E+00  2.330720E-02  1.878980E-03 -1.928242E-17 -1.009904E+00  0.000000E+00
  2.551020E-01  4.106073E-02  5.000000E-01  2.576799E-01  4.151439E-02  0.000000E+00  2.337395E-02  2.038272E-03 -1.310349E-17 -1.002816E+00  0.000000E+00
  2.381210E-01  3.952349E-02  5.000000E-01  2.405274E-01  3.996162E-02  0.000000E+00  2.342864E-02  2.205237E-03 -4.727377E-18 -9.956387E-01  0.000000E+00
  2.217090E-01  3.792119E-02  5.000000E-01  2.239496E-01  3.834315E-02  0.000000E+00  2.347124E-02  2.380979E-03  3.637371E-18 -9.886927E-01  0.000000E+00
  2.058840E-01  3.625638E-02  5.000000E-01  2.079648E-01  3.666153E-02  0.000000E+00  2.348220E-02  2.544034E-03  8.491943E-18 -9.842176E-01  0.000000E+00
  1.906600E-01  3.455690E-02  5.000000E-01  1.925871E-01  3.494488E-02  0.000000E+00  2.345415E-02  2.657858E-03  7.580037E-18 -9.856395E-01  0.000000E+00
  1.760460E-01  3.287360E-02  5.000000E-01  1.778255E-01  3.324458E-02  0.000000E+00  2.345472E-02  2.727181E-03  2.458279E-18 -9.934870E-01  0.000000E+00
  1.620500E-01  3.123087E-02  5.000000E-01  1.636881E-01  3.158526E-02  0.000000E+00  2.357605E-02  2.794413E-03 -5.809705E-18 -1.004988E+00  0.000000E+00
  1.486750E-01  2.963101E-02  5.000000E-01  1.501781E-01  2.996925E-02  0.000000E+00  2.383927E-02  2.889405E-03 -1.713234E-17 -1.017206E+00  0.000000E+00
  1.359210E-01  2.806587E-02  5.000000E-01  1.372953E-01  2.838829E-02  0.000000E+00  2.419392E-02  3.020122E-03 -3.202142E-17 -1.028377E+00  0.000000E+00
  1.237890E-01  2.652659E-02  5.000000E-01  1.250407E-01  2.683347E-02  0.000000E+00  2.456901E-02  3.183939E-03 -5.671916E-17 -1.037847E+00  0.000000E+00
  1.122730E-01  2.500363E-02  5.000000E-01  1.134084E-01  2.529513E-02  0.000000E+00  2.491269E-02  3.375676E-03 -1.075341E-16 -1.045709E+00  0.000000E+00
  1.013710E-01  2.349127E-02  5.000000E-01  1.023964E-01  2.376749E-02  0.000000E+00  2.520197E-02  3.588836E-03 -1.988951E-16 -1.052572E+00  0.000000E+00
  9.107400E-02  2.198744E-02  5.000000E-01  9.199536E-02  2.224849E-02  0.000000E+00  2.544045E-02  3.822625E-03 -4.092670E-16 -1.059011E+00  0.000000E+00
  9.107400E-02  2.198744E-02  5.000000E-01  9.199536E-02  2.224849E-02  0.000000E+00  2.544045E-02  3.822625E-03 -4.092670E-16 -1.059011E+00  0.000000E+00
  8.137660E-02  2.048987E-02  5.000000E-01  8.220003E-02  2.073578E-02  0.000000E+00  2.563623E-02  4.075420E-03 -7.794951E-16 -1.065773E+00  0.000000E+00
  7.227050E-02  1.900091E-02  5.000000E-01  7.300197E-02  1.923180E-02  0.000000E+00  2.579376E-02  4.341292E-03 -1.382975E-15 -1.073873E+00  0.000000E+00
  6.374670E-02  1.752565E-02  5.000000E-01  6.439209E-02  1.774163E-02  0.000000E+00  2.592386E-02  4.621370E-03 -2.440708E-15 -1.083981E+00  0.000000E+00
  5.579720E-02  1.606735E-02  5.000000E-01  5.636231E-02  1.626861E-02  0.000000E+00  2.602714E-02  4.911810E-03 -4.255786E-15 -1.097007E+00  0.000000E+00
  4.841260E-02  1.463453E-02  5.000000E-01  4.890313E-02  1.482132E-02  0.000000E+00  2.610175E-02  5.207348E-03 -7.300176E-15 -1.113939E+00  0.000000E+00
  4.158390E-02  1.323497E-02  5.000000E-01  4.200547E-02  1.340762E-02  0.000000E+00  2.615280E-02  5.514418E-03 -1.219675E-14 -1.135170E+00  0.000000E+00
  3.530370E-02  1.187350E-02  5.000000E-01  3.566185E-02  1.203241E-02  0.000000E+00  2.616128E-02  5.827691E-03 -1.956911E-14 -1.161538E+00  0.000000E+00
  2.956270E-02  1.055964E-02  5.000000E-01  2.986287E-02  1.070528E-02  0.000000E+00  2.609992E-02  6.142329E-03 -2.969192E-14 -1.193708E+00  0.000000E+00
  2.435310E-02  9.299904E-03  5.000000E-01  2.460066E-02  9.432816E-03  0.000000E+00  2.592863E-02  6.470166E-03 -4.180594E-14 -1.231093E+00  0.000000E+00
  1.967110E-02  8.094761E-03  5.000000E-01  1.987137E-02  8.215503E-03  0.000000E+00  2.551279E-02  6.781781E-03 -5.323597E-14 -1.274002E+00  0.000000E+00
  1.550860E-02  6.951367E-03  5.000000E-01  1.566684E-02  7.060562E-03  0.000000E+00  2.467450E-02  7.028715E-03 -5.908602E-14 -1.322743E+00  0.000000E+00
  1.185930E-02  5.873374E-03  5.000000E-01  1.198068E-02  5.971682E-03  0.000000E+00  2.331644E-02  7.203749E-03 -5.300881E-14 -1.375465E+00  0.000000E+00
  8.724160E-03  4.856955E-03  5.000000E-01  8.813883E-03  4.944999E-03  0.000000E+00  2.156546E-02  7.334773E-03 -2.830109E-14 -1.431708E+00  0.000000E+00
  6.091130E-03  3.910298E-03  5.000000E-01  6.154263E-03  3.988781E-03  0.000000E+00  2.031145E-02  7.811580E-03  2.287086E-14 -1.486871E+00  0.000000E+00
  3.952840E-03  3.036115E-03  5.000000E-01  3.994378E-03  3.105770E-03  0.000000E+00  2.112787E-02  9.725921E-03  1.177481E-13 -1.524029E+00  0.000000E+00
  2.330070E-03  2.221607E-03  5.000000E-01  2.355220E-03  2.283037E-03  0.000000E+00  2.423827E-02  1.418970E-02  2.881539E-13 -1.531703E+00  0.000000E+00
  1.198080E-03  1.484886E-03  5.000000E-01  1.211798E-03  1.538876E-03  0.000000E+00  2.760599E-02  2.138874E-02  5.206719E-13 -1.519860E+00  0.000000E+00
  5.019560E-04  8.590199E-04  5.000000E-01  5.086442E-04  9.066889E-04  0.000000E+00  3.042497E-02  3.351251E-02  6.449835E-13 -1.531374E+00  0.000000E+00
  1.313430E-04  3.759447E-04  5.000000E-01  1.342884E-04  4.187352E-04  0.000000E+00  3.508484E-02  7.040033E-02  6.470312E-13 -1.566526E+00  0.000000E+00
  8.078190E-06  6.782331E-05  5.000000E-01  9.778777E-06  1.075022E-04  0.000000E+00  3.056176E-02  1.733351E-01  1.571622E-12 -1.484922E+00  0.000000E+00
 -1.602820E-06 -3.860406E-05  5.000000E-01  0.000000E+00  0.000000E+00  0.000000E+00 -4.939089E-03  2.521648E-01  1.641033E-12 -1.190943E+00  0.000000E+00
  9.141860E-06 -1.486580E-04  5.000000E-01  1.085319E-05 -1.111654E-04  0.000000E+00 -4.976064E-02  1.967989E-01  3.601356E-13 -4.689272E-01  0.000000E+00