 Title = "ADflow Slice Data"
Variables =  "CoordinateX"  "CoordinateY"  "CoordinateZ"  "XoC"  "YoC"  "ZoC" "VelocityX" "VelocityY" "VelocityZ" "CoefPressure" "Mach" 
Zone T= "Slice_0001 None Absolute Regular z = 0.50000000"
 Nodes =          192  Elements=          184  ZONETYPE=FELINESEG
 DATAPACKING=POINT
  5.667600E-01 -1.512091E-02  5.000000E-01  5.724853E-01 -1.523487E-02  0.000000E+00  1.341182E-02  1.530190E-03  2.257354E-18  9.989245E-02  0.000000E+00
  5.873410E-01 -1.275927E-02  5.000000E-01  5.932741E-01 -1.284938E-02  0.000000E+00  1.290509E-02  1.479757E-03  1.197000E-18  1.228781E-01  0.000000E+00
  6.076580E-01 -1.043151E-02  5.000000E-01  6.137963E-01 -1.049812E-02  0.000000E+00  1.246007E-02  1.418383E-03  1.555243E-19  1.448327E-01  0.000000E+00
  6.276600E-01 -8.170151E-03  5.000000E-01  6.340003E-01 -8.213918E-03  0.000000E+00  1.207473E-02  1.350284E-03 -1.972440E-18  1.651608E-01  0.000000E+00
  6.472970E-01 -5.999659E-03  5.000000E-01  6.538356E-01 -6.021506E-03  0.000000E+00  1.173969E-02  1.280416E-03 -2.258961E-18  1.835005E-01  0.000000E+00
  6.665260E-01 -3.931906E-03  5.000000E-01  6.732588E-01 -3.932871E-03  0.000000E+00  1.144472E-02  1.211319E-03 -4.935494E-19  2.000601E-01  0.000000E+00
  6.853050E-01 -1.976563E-03  5.000000E-01  6.922274E-01 -1.957781E-03  0.000000E+00  1.118367E-02  1.140466E-03  1.036383E-18  2.156317E-01  0.000000E+00
  7.035980E-01 -1.507713E-04  5.000000E-01  7.107052E-01 -1.135513E-04  0.000000E+00  1.094641E-02  1.065243E-03  2.412802E-19  2.305554E-01  0.000000E+00
  7.213750E-01  1.533605E-03  5.000000E-01  7.286617E-01  1.587835E-03  0.000000E+00  1.071018E-02  9.860475E-04 -5.743198E-19  2.444989E-01  0.000000E+00
  7.386080E-01  3.072358E-03  5.000000E-01  7.460687E-01  3.142128E-03  0.000000E+00  1.044597E-02  9.049905E-04  1.151761E-18  2.573889E-01  0.000000E+00
  7.552750E-01  4.470641E-03  5.000000E-01  7.629040E-01  4.554532E-03  0.000000E+00  1.013565E-02  8.263029E-04  1.142970E-18  2.696577E-01  0.000000E+00
  7.713580E-01  5.741325E-03  5.000000E-01  7.791495E-01  5.838049E-03  0.000000E+00  9.791992E-03  7.517857E-04 -3.961936E-19  2.818658E-01  0.000000E+00
  7.868410E-01  6.895407E-03  5.000000E-01  7.947888E-01  7.003786E-03  0.000000E+00  9.481957E-03  6.641117E-04  2.518217E-19  2.957387E-01  0.000000E+00
  8.017160E-01  7.872922E-03  5.000000E-01  8.098140E-01  7.991172E-03  0.000000E+00  9.306678E-03  5.403901E-04  1.013599E-18  3.116155E-01  0.000000E+00
  8.159740E-01  8.590491E-03  5.000000E-01  8.242160E-01  8.715988E-03  0.000000E+00  9.329805E-03  3.860622E-04  6.045325E-19  3.245283E-01  0.000000E+00
  8.296120E-01  9.030465E-03  5.000000E-01  8.379918E-01  9.160405E-03  0.000000E+00  9.555128E-03  2.187790E-04  8.040394E-20  3.296085E-01  0.000000E+00
  8.426300E-01  9.209095E-03  5.000000E-01  8.511412E-01  9.340840E-03  0.000000E+00  9.959240E-03  4.535409E-05 -3.044540E-19  3.267983E-01  0.000000E+00
  8.550290E-01  9.157743E-03  5.000000E-01  8.636654E-01  9.288969E-03  0.000000E+00  1.051388E-02 -1.332166E-04  2.510166E-19  3.180828E-01  0.000000E+00
  8.668160E-01  8.914131E-03  5.000000E-01  8.755715E-01  9.042896E-03  0.000000E+00  1.119012E-02 -3.157906E-04  3.988926E-19  3.048120E-01  0.000000E+00
  8.779950E-01  8.519515E-03  5.000000E-01  8.868634E-01  8.644295E-03  0.000000E+00  1.195811E-02 -4.998124E-04  6.058581E-19  2.875470E-01  0.000000E+00
  8.885730E-01  8.013164E-03  5.000000E-01  8.975482E-01  8.132830E-03  0.000000E+00  1.278856E-02 -6.827059E-04  9.881508E-19  2.668765E-01  0.000000E+00
  8.985610E-01  7.428445E-03  5.000000E-01  9.076371E-01  7.542207E-03  0.000000E+00  1.364887E-02 -8.577222E-04  9.143399E-19  2.433217E-01  0.000000E+00
  9.079670E-01  6.799131E-03  5.000000E-01  9.171381E-01  6.906537E-03  0.000000E+00  1.449976E-02 -1.012492E-03  1.445970E-18  2.173445E-01  0.000000E+00
  9.168010E-01  6.157726E-03  5.000000E-01  9.260613E-01  6.258654E-03  0.000000E+00  1.530360E-02 -1.137871E-03  1.106197E-18  1.900022E-01  0.000000E+00
  9.168010E-01  6.157726E-03  5.000000E-01  9.260613E-01  6.258654E-03  0.000000E+00  1.530360E-02 -1.137871E-03  1.106197E-18  1.900022E-01  0.000000E+00
  9.250730E-01  5.529033E-03  5.000000E-01  9.344168E-01  5.623613E-03  0.000000E+00  1.603722E-02 -1.235090E-03 -1.510039E-20  1.628191E-01  0.000000E+00
  9.327940E-01  4.927293E-03  5.000000E-01  9.422158E-01  5.015796E-03  0.000000E+00  1.670009E-02 -1.315850E-03 -4.899481E-20  1.371089E-01  0.000000E+00
  9.399760E-01  4.355781E-03  5.000000E-01  9.494703E-01  4.438512E-03  0.000000E+00  1.730846E-02 -1.391690E-03  9.162565E-21  1.131404E-01  0.000000E+00
  9.466320E-01  3.815200E-03  5.000000E-01  9.561935E-01  3.892472E-03  0.000000E+00  1.788248E-02 -1.467141E-03  1.545819E-18  9.017595E-02  0.000000E+00
  9.527730E-01  3.306371E-03  5.000000E-01  9.623965E-01  3.378504E-03  0.000000E+00  1.844684E-02 -1.548698E-03  5.271914E-18  6.767615E-02  0.000000E+00
  9.584110E-01  2.827154E-03  5.000000E-01  9.680915E-01  2.894448E-03  0.000000E+00  1.903425E-02 -1.647006E-03  6.428086E-18  4.540869E-02  0.000000E+00
  9.635570E-01  2.374318E-03  5.000000E-01  9.732895E-01  2.437039E-03  0.000000E+00  1.967859E-02 -1.767949E-03 -7.952982E-18  2.265590E-02  0.000000E+00
  9.682220E-01  1.946793E-03  5.000000E-01  9.780016E-01  2.005196E-03  0.000000E+00  2.041201E-02 -1.912160E-03 -4.367823E-17 -1.670854E-03  0.000000E+00
  9.724140E-01  1.545859E-03  5.000000E-01  9.822359E-01  1.600213E-03  0.000000E+00  2.128251E-02 -2.087646E-03 -5.168377E-17 -2.820225E-02  0.000000E+00
  9.761430E-01  1.171440E-03  5.000000E-01  9.860026E-01  1.222013E-03  0.000000E+00  2.237225E-02 -2.311570E-03  7.819138E-17 -5.739061E-02  0.000000E+00
  9.794160E-01  8.242704E-04  5.000000E-01  9.893086E-01  8.713373E-04  0.000000E+00  2.378321E-02 -2.597352E-03  3.718084E-16 -9.031724E-02  0.000000E+00
  9.822400E-01  5.074293E-04  5.000000E-01  9.921611E-01  5.512964E-04  0.000000E+00  2.556633E-02 -2.947188E-03  4.545600E-16 -1.284354E-01  0.000000E+00
  9.846200E-01  2.260650E-04  5.000000E-01  9.945652E-01  2.670907E-04  0.000000E+00  2.759059E-02 -3.347859E-03 -5.774923E-16 -1.720943E-01  0.000000E+00
  9.865620E-01 -1.453607E-05  5.000000E-01  9.965268E-01  2.405979E-05  0.000000E+00  2.940960E-02 -3.711581E-03 -3.243469E-15 -2.194031E-01  0.000000E+00
  9.880680E-01 -2.086060E-04  5.000000E-01  9.980480E-01 -1.719700E-04  0.000000E+00  2.987559E-02 -3.826698E-03 -5.128610E-15 -2.766122E-01  0.000000E+00
  9.891420E-01 -3.514239E-04  5.000000E-01  9.991328E-01 -3.162303E-04  0.000000E+00  2.812839E-02 -3.911134E-03  1.773564E-15 -3.434968E-01  0.000000E+00
  9.897860E-01 -4.389487E-04  5.000000E-01  9.997833E-01 -4.046389E-04  0.000000E+00  3.788611E-02 -4.013267E-03  2.541024E-14 -2.893916E-01  0.000000E+00
  9.900000E-01 -4.683023E-04  5.000000E-01  9.999995E-01 -4.342889E-04  0.000000E+00  2.618841E-02  5.267620E-03  2.469267E-14 -5.820159E-01  0.000000E+00
  9.900000E-01 -1.843754E-04  5.000000E-01  9.999995E-01 -1.474947E-04  0.000000E+00  1.229773E-03 -7.885237E-03  4.890009E-15 -8.088092E-01  0.000000E+00
  9.900000E-01  9.955150E-05  5.000000E-01  9.999995E-01  1.392995E-04  0.000000E+00 -4.468910E-04 -2.274866E-02  1.860042E-15 -6.283590E-01  0.000000E+00
  9.900000E-01  3.834784E-04  5.000000E-01  9.999995E-01  4.260937E-04  0.000000E+00 -1.435998E-04 -8.862955E-03  1.846939E-15 -6.283150E-01  0.000000E+00
  9.900000E-01  6.674053E-04  5.000000E-01  9.999995E-01  7.128880E-04  0.000000E+00  4.646608E-04 -5.229919E-03  3.130317E-15 -6.881957E-01  0.000000E+00
  9.900000E-01  9.513321E-04  5.000000E-01  9.999995E-01  9.996822E-04  0.000000E+00  6.797371E-03 -6.632436E-03  4.268975E-15 -6.299445E-01  0.000000E+00
  9.900000E-01  9.513321E-04  5.000000E-01  9.999995E-01  9.996822E-04  0.000000E+00  6.797371E-03 -6.632436E-03  4.268975E-15 -6.299445E-01  0.000000E+00
  9.897890E-01  1.017904E-03  5.000000E-01  9.997864E-01  1.066926E-03  0.000000E+00  9.015815E-03 -3.469602E-03  3.891170E-15 -5.523840E-01  0.000000E+00
  9.891540E-01  1.218674E-03  5.000000E-01  9.991450E-01  1.269724E-03  0.000000E+00  4.567811E-03 -1.351290E-03  2.323259E-15 -5.709864E-01  0.000000E+00
  9.880950E-01  1.555408E-03  5.000000E-01  9.980753E-01  1.609858E-03  0.000000E+00  3.024822E-03 -9.609338E-04  1.026233E-15 -5.705463E-01  0.000000E+00
  9.866100E-01  2.031333E-03  5.000000E-01  9.965753E-01  2.090590E-03  0.000000E+00  1.983780E-03 -6.497867E-04  3.761584E-16 -5.626465E-01  0.000000E+00
  9.846960E-01  2.650662E-03  5.000000E-01  9.946419E-01  2.716174E-03  0.000000E+00  9.959189E-04 -3.234664E-04  1.449533E-16 -5.590086E-01  0.000000E+00
  9.823490E-01  3.418251E-03  5.000000E-01  9.922712E-01  3.491515E-03  0.000000E+00  1.849866E-04 -5.918588E-05  6.500192E-17 -5.580291E-01  0.000000E+00
  9.795670E-01  4.338749E-03  5.000000E-01  9.894611E-01  4.421308E-03  0.000000E+00 -4.278355E-04  1.427336E-04  1.858553E-17 -5.582710E-01  0.000000E+00
  9.763420E-01  5.417935E-03  5.000000E-01  9.862036E-01  5.511392E-03  0.000000E+00 -8.716097E-04  2.932907E-04 -1.013103E-17 -5.597157E-01  0.000000E+00
  9.726710E-01  6.659543E-03  5.000000E-01  9.824955E-01  6.765540E-03  0.000000E+00 -1.170644E-03  3.977095E-04 -1.762710E-17 -5.622495E-01  0.000000E+00
  9.685460E-01  8.066753E-03  5.000000E-01  9.783288E-01  8.186961E-03  0.000000E+00 -1.342220E-03  4.594732E-04 -1.218054E-17 -5.654529E-01  0.000000E+00
  9.639600E-01  9.641707E-03  5.000000E-01  9.736965E-01  9.777820E-03  0.000000E+00 -1.402974E-03  4.831476E-04 -4.230822E-18 -5.688180E-01  0.000000E+00
  9.589060E-01  1.138655E-02  5.000000E-01  9.685915E-01  1.154029E-02  0.000000E+00 -1.373321E-03  4.750034E-04  5.008654E-19 -5.718688E-01  0.000000E+00
  9.533750E-01  1.330247E-02  5.000000E-01  9.630046E-01  1.347555E-02  0.000000E+00 -1.279126E-03  4.433682E-04  2.168511E-18 -5.742419E-01  0.000000E+00
  9.473580E-01  1.538821E-02  5.000000E-01  9.569269E-01  1.558236E-02  0.000000E+00 -1.150220E-03  3.983924E-04  2.402227E-18 -5.757519E-01  0.000000E+00
  9.408450E-01  1.764045E-02  5.000000E-01  9.503481E-01  1.785734E-02  0.000000E+00 -1.016817E-03  3.507748E-04  1.129185E-18 -5.764284E-01  0.000000E+00
  9.338260E-01  2.005389E-02  5.000000E-01  9.432582E-01  2.029516E-02  0.000000E+00 -9.056165E-04  3.100108E-04  4.179259E-19 -5.764998E-01  0.000000E+00
  9.262910E-01  2.262009E-02  5.000000E-01  9.356471E-01  2.288727E-02  0.000000E+00 -8.371979E-04  2.831297E-04 -2.101436E-19 -5.763186E-01  0.000000E+00
  9.182290E-01  2.532623E-02  5.000000E-01  9.275037E-01  2.562074E-02  0.000000E+00 -8.254698E-04  2.742144E-04 -3.197544E-19 -5.762556E-01  0.000000E+00
  9.096280E-01  2.815459E-02  5.000000E-01  9.188158E-01  2.847766E-02  0.000000E+00 -8.781179E-04  2.845059E-04  1.490956E-19 -5.766711E-01  0.000000E+00
  9.004770E-01  3.108169E-02  5.000000E-01  9.095724E-01  3.143432E-02  0.000000E+00 -9.969688E-04  3.126254E-04 -1.882774E-20 -5.778804E-01  0.000000E+00
  8.907650E-01  3.407660E-02  5.000000E-01  8.997623E-01  3.445948E-02  0.000000E+00 -1.179230E-03  3.542517E-04  7.647451E-19 -5.799685E-01  0.000000E+00
  8.804800E-01  3.709793E-02  5.000000E-01  8.893735E-01  3.751132E-02  0.000000E+00 -1.418057E-03  4.017174E-04  3.963112E-19 -5.828360E-01  0.000000E+00
  8.696090E-01  4.008991E-02  5.000000E-01  8.783927E-01  4.053352E-02  0.000000E+00 -1.699154E-03  4.455806E-04 -1.017379E-19 -5.864177E-01  0.000000E+00
  8.696090E-01  4.008991E-02  5.000000E-01  8.783927E-01  4.053352E-02  0.000000E+00 -1.699154E-03  4.455806E-04 -1.017379E-19 -5.864177E-01  0.000000E+00
  8.581400E-01  4.298047E-02  5.000000E-01  8.668079E-01  4.345327E-02  0.000000E+00 -2.002485E-03  4.769158E-04  1.286128E-18 -5.897243E-01  0.000000E+00
  8.460600E-01  4.568543E-02  5.000000E-01  8.546059E-01  4.618554E-02  0.000000E+00 -2.310282E-03  4.855671E-04  1.328715E-18 -5.905549E-01  0.000000E+00
  8.333640E-01  4.812492E-02  5.000000E-01  8.417817E-01  4.864967E-02  0.000000E+00 -2.567487E-03  4.509500E-04  2.479653E-19 -5.921080E-01  0.000000E+00
  8.200460E-01  5.022336E-02  5.000000E-01  8.283292E-01  5.076930E-02  0.000000E+00 -2.540714E-03  3.448766E-04  2.550733E-19 -6.136453E-01  0.000000E+00
  8.061050E-01  5.191333E-02  5.000000E-01  8.142474E-01  5.247634E-02  0.000000E+00 -1.648230E-03  1.621359E-04  6.361029E-19 -6.844073E-01  0.000000E+00
  7.915460E-01  5.316907E-02  5.000000E-01  7.995413E-01  5.374476E-02  0.000000E+00  9.925608E-04 -5.251397E-05  1.993396E-18 -8.104094E-01  0.000000E+00
  7.763770E-01  5.402980E-02  5.000000E-01  7.842191E-01  5.461419E-02  0.000000E+00  5.991540E-03 -2.164947E-04  2.753570E-18 -9.517272E-01  0.000000E+00
  7.606070E-01  5.456484E-02  5.000000E-01  7.682899E-01  5.515463E-02  0.000000E+00  1.260987E-02 -2.327098E-04  1.329336E-19 -1.050200E+00  0.000000E+00
  7.442510E-01  5.478149E-02  5.000000E-01  7.517687E-01  5.537347E-02  0.000000E+00  1.845472E-02 -4.496290E-05 -4.702525E-18 -1.081604E+00  0.000000E+00
  7.273250E-01  5.469763E-02  5.000000E-01  7.346718E-01  5.528875E-02  0.000000E+00  2.145702E-02  2.562048E-04 -1.002721E-17 -1.067291E+00  0.000000E+00
  7.098490E-01  5.436571E-02  5.000000E-01  7.170193E-01  5.495349E-02  0.000000E+00  2.167869E-02  4.875431E-04 -1.348236E-17 -1.042297E+00  0.000000E+00
  6.918480E-01  5.388183E-02  5.000000E-01  6.988365E-01  5.446472E-02  0.000000E+00  2.053728E-02  5.378136E-04 -1.352210E-17 -1.031197E+00  0.000000E+00
  6.733520E-01  5.339610E-02  5.000000E-01  6.801537E-01  5.397409E-02  0.000000E+00  1.933095E-02  3.966228E-04 -1.104855E-17 -1.044708E+00  0.000000E+00
  6.543930E-01  5.310810E-02  5.000000E-01  6.610032E-01  5.368317E-02  0.000000E+00  1.875466E-02  1.294294E-04 -7.950045E-18 -1.079364E+00  0.000000E+00
  6.350090E-01  5.313746E-02  5.000000E-01  6.414235E-01  5.371284E-02  0.000000E+00  1.903447E-02 -1.468056E-04 -5.636316E-18 -1.119808E+00  0.000000E+00
  6.152440E-01  5.341693E-02  5.000000E-01  6.214589E-01  5.399512E-02  0.000000E+00  1.996358E-02 -3.486318E-04 -4.702638E-18 -1.151525E+00  0.000000E+00
  5.951420E-01  5.383647E-02  5.000000E-01  6.011539E-01  5.441890E-02  0.000000E+00  2.108748E-02 -4.395314E-04 -4.597612E-18 -1.167554E+00  0.000000E+00
  5.747530E-01  5.426568E-02  5.000000E-01  5.805590E-01  5.485244E-02  0.000000E+00  2.203842E-02 -3.839961E-04 -4.896898E-18 -1.165434E+00  0.000000E+00
  5.541290E-01  5.455981E-02  5.000000E-01  5.597267E-01  5.514955E-02  0.000000E+00  2.264735E-02 -1.704735E-04 -5.794523E-18 -1.146602E+00  0.000000E+00
  5.333260E-01  5.458123E-02  5.000000E-01  5.387136E-01  5.517118E-02  0.000000E+00  2.285308E-02  1.287728E-04 -6.273182E-18 -1.118458E+00  0.000000E+00
  5.124010E-01  5.431926E-02  5.000000E-01  5.175773E-01  5.490656E-02  0.000000E+00  2.270612E-02  4.073146E-04 -6.079518E-18 -1.090540E+00  0.000000E+00
  4.914140E-01  5.382398E-02  5.000000E-01  4.963783E-01  5.440629E-02  0.000000E+00  2.239007E-02  6.211484E-04 -6.071550E-18 -1.068257E+00  0.000000E+00
  4.704230E-01  5.315127E-02  5.000000E-01  4.751754E-01  5.372678E-02  0.000000E+00  2.208374E-02  7.684199E-04 -6.885988E-18 -1.053655E+00  0.000000E+00
  1.696960E-04 -4.810012E-04  5.000000E-01  1.730287E-04 -4.471162E-04  0.000000E+00 -6.436948E-02  9.282099E-02 -6.640980E-14  5.409115E-01  0.000000E+00
  8.054360E-04 -9.781858E-04  5.000000E-01  8.151890E-04 -9.493217E-04  0.000000E+00 -4.693411E-02  3.286233E-02 -5.263326E-14  1.106832E+00  0.000000E+00
  1.973980E-03 -1.585099E-03  5.000000E-01  1.995534E-03 -1.562364E-03  0.000000E+00 -2.105152E-02  1.047951E-02 -2.923356E-14  1.176614E+00  0.000000E+00
  3.614630E-03 -2.299724E-03  5.000000E-01  3.652753E-03 -2.284206E-03  0.000000E+00 -4.055466E-03  1.772906E-03 -9.867897E-15  1.152925E+00  0.000000E+00
  5.721210E-03 -3.130488E-03  5.000000E-01  5.780607E-03 -3.123360E-03  0.000000E+00  5.020191E-03 -1.863733E-03  2.149170E-16  1.122580E+00  0.000000E+00
  8.297500E-03 -4.074912E-03  5.000000E-01  8.382914E-03 -4.077321E-03  0.000000E+00  9.329701E-03 -3.267916E-03  2.771080E-15  1.078246E+00  0.000000E+00
  1.136560E-02 -5.113390E-03  5.000000E-01  1.148200E-02 -5.126287E-03  0.000000E+00  1.109805E-02 -3.619094E-03  1.997057E-15  1.023816E+00  0.000000E+00
  1.493280E-02 -6.234674E-03  5.000000E-01  1.508522E-02 -6.258894E-03  0.000000E+00  1.169360E-02 -3.584642E-03  7.548473E-16  9.693048E-01  0.000000E+00
  1.899460E-02 -7.447075E-03  5.000000E-01  1.918804E-02 -7.483539E-03  0.000000E+00  1.195002E-02 -3.514718E-03  3.343267E-17  9.186116E-01  0.000000E+00
  2.354800E-02 -8.766643E-03  5.000000E-01  2.378743E-02 -8.816433E-03  0.000000E+00  1.228449E-02 -3.506764E-03 -1.790698E-16  8.687301E-01  0.000000E+00
  2.860130E-02 -1.018889E-02  5.000000E-01  2.889176E-02 -1.025304E-02  0.000000E+00  1.281568E-02 -3.545769E-03 -1.458064E-16  8.170144E-01  0.000000E+00
  3.416500E-02 -1.170273E-02  5.000000E-01  3.451165E-02 -1.178217E-02  0.000000E+00  1.352516E-02 -3.613184E-03 -6.354290E-17  7.646888E-01  0.000000E+00
  4.024810E-02 -1.329897E-02  5.000000E-01  4.065618E-02 -1.339453E-02  0.000000E+00  1.435426E-02 -3.689802E-03 -9.868703E-18  7.126641E-01  0.000000E+00
  4.686030E-02 -1.496531E-02  5.000000E-01  4.733516E-02 -1.507770E-02  0.000000E+00  1.523858E-02 -3.755788E-03  9.305407E-18  6.607245E-01  0.000000E+00
  5.401090E-02 -1.669008E-02  5.000000E-01  5.455797E-02 -1.681989E-02  0.000000E+00  1.613140E-02 -3.802747E-03  9.652865E-18  6.089388E-01  0.000000E+00
  6.170850E-02 -1.846464E-02  5.000000E-01  6.233331E-02 -1.861237E-02  0.000000E+00  1.700709E-02 -3.822354E-03  5.021950E-18  5.569347E-01  0.000000E+00
  6.996310E-02 -2.027466E-02  5.000000E-01  7.067127E-02 -2.044067E-02  0.000000E+00  1.785189E-02 -3.802103E-03  1.721096E-18  5.040088E-01  0.000000E+00
  7.878500E-02 -2.210053E-02  5.000000E-01  7.958226E-02 -2.228497E-02  0.000000E+00  1.866270E-02 -3.738378E-03  7.449021E-19  4.503587E-01  0.000000E+00
  8.818390E-02 -2.392309E-02  5.000000E-01  8.907608E-02 -2.412594E-02  0.000000E+00  1.944092E-02 -3.631271E-03 -4.698979E-19  3.964190E-01  0.000000E+00
  9.816930E-02 -2.571981E-02  5.000000E-01  9.916232E-02 -2.594080E-02  0.000000E+00  2.018112E-02 -3.476129E-03 -1.195550E-18  3.422500E-01  0.000000E+00
  1.087500E-01 -2.746381E-02  5.000000E-01  1.098499E-01 -2.770242E-02  0.000000E+00  2.086712E-02 -3.269472E-03 -1.900973E-18  2.882740E-01  0.000000E+00
  1.199340E-01 -2.912778E-02  5.000000E-01  1.211468E-01 -2.938319E-02  0.000000E+00  2.146409E-02 -3.006284E-03 -3.804988E-18  2.351951E-01  0.000000E+00
  1.317280E-01 -3.067964E-02  5.000000E-01  1.330599E-01 -3.095073E-02  0.000000E+00  2.191137E-02 -2.677730E-03 -3.871299E-18  1.838614E-01  0.000000E+00
  1.441380E-01 -3.208205E-02  5.000000E-01  1.455952E-01 -3.236730E-02  0.000000E+00  2.213781E-02 -2.283774E-03 -2.560673E-18  1.360572E-01  0.000000E+00
  1.441380E-01 -3.208205E-02  5.000000E-01  1.455952E-01 -3.236730E-02  0.000000E+00  2.213781E-02 -2.283774E-03 -2.560673E-18  1.360572E-01  0.000000E+00
  1.571670E-01 -3.329854E-02  5.000000E-01  1.587558E-01 -3.359607E-02  0.000000E+00  2.209225E-02 -1.838124E-03 -2.913112E-18  9.435951E-02  0.000000E+00
  1.708170E-01 -3.429419E-02  5.000000E-01  1.725437E-01 -3.460178E-02  0.000000E+00  2.178420E-02 -1.370481E-03 -5.049217E-18  6.150035E-02  0.000000E+00
  1.850860E-01 -3.504530E-02  5.000000E-01  1.869568E-01 -3.536047E-02  0.000000E+00  2.131751E-02 -9.338012E-04 -5.018988E-18  3.983008E-02  0.000000E+00
  1.999720E-01 -3.556045E-02  5.000000E-01  2.019931E-01 -3.588083E-02  0.000000E+00  2.087272E-02 -5.963725E-04 -2.865254E-18  3.008246E-02  0.000000E+00
  2.154670E-01 -3.590524E-02  5.000000E-01  2.176446E-01 -3.622910E-02  0.000000E+00  2.059286E-02 -3.845705E-04 -1.187627E-18  2.788831E-02  0.000000E+00
  2.315610E-01 -3.614983E-02  5.000000E-01  2.339011E-01 -3.647616E-02  0.000000E+00  2.046551E-02 -2.365203E-04 -4.677720E-19  2.316991E-02  0.000000E+00
  2.482400E-01 -3.628590E-02  5.000000E-01  2.507486E-01 -3.661360E-02  0.000000E+00  2.039616E-02 -8.598520E-05 -2.147084E-19  1.044723E-02  0.000000E+00
  2.654840E-01 -3.629144E-02  5.000000E-01  2.681667E-01 -3.661920E-02  0.000000E+00  2.031774E-02  8.201729E-05  8.459033E-19 -7.125949E-03  0.000000E+00
  2.832720E-01 -3.614100E-02  5.000000E-01  2.861343E-01 -3.646724E-02  0.000000E+00  2.019286E-02  2.651803E-04  1.935908E-18 -2.452107E-02  0.000000E+00
  3.015770E-01 -3.581326E-02  5.000000E-01  3.046242E-01 -3.613619E-02  0.000000E+00  2.000584E-02  4.541180E-04  2.828376E-18 -3.832974E-02  0.000000E+00
  3.203660E-01 -3.529491E-02  5.000000E-01  3.236030E-01 -3.561261E-02  0.000000E+00  1.975469E-02  6.384586E-04  3.149676E-18 -4.740047E-02  0.000000E+00
  3.396030E-01 -3.458067E-02  5.000000E-01  3.430342E-01 -3.489116E-02  0.000000E+00  1.944275E-02  8.116514E-04  2.255206E-18 -5.207504E-02  0.000000E+00
  3.592490E-01 -3.366853E-02  5.000000E-01  3.628786E-01 -3.396980E-02  0.000000E+00  1.907294E-02  9.716663E-04  2.232135E-18 -5.312588E-02  0.000000E+00
  3.792580E-01 -3.255729E-02  5.000000E-01  3.830897E-01 -3.284734E-02  0.000000E+00  1.864819E-02  1.117241E-03  2.303939E-18 -5.093728E-02  0.000000E+00
  3.995810E-01 -3.124873E-02  5.000000E-01  4.036179E-01 -3.152557E-02  0.000000E+00  1.817242E-02  1.245997E-03  1.379399E-18 -4.542580E-02  0.000000E+00
  4.201670E-01 -2.974883E-02  5.000000E-01  4.244118E-01 -3.001051E-02  0.000000E+00  1.764855E-02  1.356242E-03  1.646151E-18 -3.650143E-02  0.000000E+00
  4.409600E-01 -2.806556E-02  5.000000E-01  4.454148E-01 -2.831025E-02  0.000000E+00  1.707900E-02  1.447421E-03  2.110740E-18 -2.428046E-02  0.000000E+00
  4.619030E-01 -2.620844E-02  5.000000E-01  4.665693E-01 -2.643437E-02  0.000000E+00  1.647147E-02  1.517608E-03  1.360104E-18 -8.851853E-03  0.000000E+00
  4.829360E-01 -2.419482E-02  5.000000E-01  4.878147E-01 -2.440041E-02  0.000000E+00  1.584032E-02  1.564278E-03  9.551820E-19  9.605165E-03  0.000000E+00
  5.039990E-01 -2.204854E-02  5.000000E-01  5.090904E-01 -2.223246E-02  0.000000E+00  1.520265E-02  1.586665E-03  1.658014E-18  3.055197E-02  0.000000E+00
  5.250310E-01 -1.979935E-02  5.000000E-01  5.303348E-01 -1.996056E-02  0.000000E+00  1.457532E-02  1.586179E-03  1.500660E-18  5.316415E-02  0.000000E+00
  5.459710E-01 -1.747971E-02  5.000000E-01  5.514863E-01 -1.761749E-02  0.000000E+00  1.397327E-02  1.566379E-03  1.873323E-18  7.649758E-02  0.000000E+00
  5.667600E-01 -1.512091E-02  5.000000E-01  5.724853E-01 -1.523487E-02  0.000000E+00  1.341182E-02  1.530190E-03  2.257354E-18  9.989245E-02  0.000000E+00
  4.704230E-01  5.315127E-02  5.000000E-01  4.751754E-01  5.372678E-02  0.000000E+00  2.208374E-02  7.684199E-04 -6.885988E-18 -1.053655E+00  0.000000E+00
  4.494880E-01  5.236177E-02  5.000000E-01  4.540289E-01  5.292931E-02  0.000000E+00  2.188903E-02  8.563009E-04 -7.834158E-18 -1.046913E+00  0.000000E+00
  4.286690E-01  5.151603E-02  5.000000E-01  4.329997E-01  5.207503E-02  0.000000E+00  2.185889E-02  9.112439E-04 -8.960984E-18 -1.045626E+00  0.000000E+00
  4.080230E-01  5.063483E-02  5.000000E-01  4.121452E-01  5.118492E-02  0.000000E+00  2.200117E-02  9.726019E-04 -1.039096E-17 -1.045761E+00  0.000000E+00
  3.876050E-01  4.970326E-02  5.000000E-01  3.915210E-01  5.024395E-02  0.000000E+00  2.225410E-02  1.058243E-03 -1.144202E-17 -1.044708E+00  0.000000E+00
  3.674690E-01  4.870801E-02  5.000000E-01  3.711816E-01  4.923865E-02  0.000000E+00  2.252962E-02  1.165201E-03 -1.212400E-17 -1.041795E+00  0.000000E+00
  3.476650E-01  4.763907E-02  5.000000E-01  3.511776E-01  4.815891E-02  0.000000E+00  2.277218E-02  1.289158E-03 -1.265848E-17 -1.037080E+00  0.000000E+00
  3.282390E-01  4.648879E-02  5.000000E-01  3.315555E-01  4.699701E-02  0.000000E+00  2.296508E-02  1.427311E-03 -1.240106E-17 -1.030914E+00  0.000000E+00
  3.092330E-01  4.525199E-02  5.000000E-01  3.123575E-01  4.574772E-02  0.000000E+00  2.311081E-02  1.574500E-03 -1.166539E-17 -1.023939E+00  0.000000E+00
  2.906860E-01  4.393164E-02  5.000000E-01  2.936232E-01  4.441404E-02  0.000000E+00  2.321906E-02  1.725615E-03 -1.182242E-17 -1.016786E+00  0.000000E+00
  2.726330E-01  4.253337E-02  5.000000E-01  2.753879E-01  4.300165E-02  0.000000E+00  2.330218E-02  1.879817E-03 -1.214199E-17 -1.009716E+00  0.000000E+00
  2.551020E-01  4.106267E-02  5.000000E-01  2.576799E-01  4.151610E-02  0.000000E+00  2.336856E-02  2.038210E-03 -1.204670E-17 -1.002731E+00  0.000000E+00
  2.381210E-01  3.952548E-02  5.000000E-01  2.405274E-01  3.996338E-02  0.000000E+00  2.342411E-02  2.204198E-03 -1.174497E-17 -9.956812E-01  0.000000E+00
  2.217090E-01  3.792399E-02  5.000000E-01  2.239496E-01  3.834572E-02  0.000000E+00  2.346859E-02  2.379006E-03 -1.195140E-17 -9.888704E-01  0.000000E+00
  2.058840E-01  3.626070E-02  5.000000E-01  2.079648E-01  3.666564E-02  0.000000E+00  2.348225E-02  2.541392E-03 -1.314915E-17 -9.845097E-01  0.000000E+00
  1.906600E-01  3.456321E-02  5.000000E-01  1.925871E-01  3.495101E-02  0.000000E+00  2.345745E-02  2.655115E-03 -1.520772E-17 -9.859903E-01  0.000000E+00
  1.760460E-01  3.288191E-02  5.000000E-01  1.778255E-01  3.325272E-02  0.000000E+00  2.346109E-02  2.724883E-03 -2.038243E-17 -9.938298E-01  0.000000E+00
  1.620500E-01  3.124089E-02  5.000000E-01  1.636881E-01  3.159513E-02  0.000000E+00  2.358450E-02  2.792795E-03 -3.031532E-17 -1.005274E+00  0.000000E+00
  1.486750E-01  2.964236E-02  5.000000E-01  1.501781E-01  2.998046E-02  0.000000E+00  2.384849E-02  2.888483E-03 -4.561156E-17 -1.017407E+00  0.000000E+00
  1.359210E-01  2.807813E-02  5.000000E-01  1.372953E-01  2.840043E-02  0.000000E+00  2.420288E-02  3.019845E-03 -7.061198E-17 -1.028484E+00  0.000000E+00
  1.237890E-01  2.653938E-02  5.000000E-01  1.250407E-01  2.684614E-02  0.000000E+00  2.457718E-02  3.184261E-03 -1.111284E-16 -1.037862E+00  0.000000E+00
  1.122730E-01  2.501661E-02  5.000000E-01  1.134084E-01  2.530799E-02  0.000000E+00  2.491998E-02  3.376571E-03 -1.784697E-16 -1.045637E+00  0.000000E+00
  1.013710E-01  2.350415E-02  5.000000E-01  1.023964E-01  2.378026E-02  0.000000E+00  2.520854E-02  3.590288E-03 -2.945059E-16 -1.052420E+00  0.000000E+00
  9.107400E-02  2.200000E-02  5.000000E-01  9.199536E-02  2.226091E-02  0.000000E+00  2.544648E-02  3.824619E-03 -4.950199E-16 -1.058786E+00  0.000000E+00
  9.107400E-02  2.200000E-02  5.000000E-01  9.199536E-02  2.226091E-02  0.000000E+00  2.544648E-02  3.824619E-03 -4.950199E-16 -1.058786E+00  0.000000E+00
  8.137660E-02  2.050190E-02  5.000000E-01  8.220003E-02  2.074769E-02  0.000000E+00  2.564188E-02  4.077933E-03 -8.406048E-16 -1.065482E+00  0.000000E+00
  7.227050E-02  1.901229E-02  5.000000E-01  7.300197E-02  1.924303E-02  0.000000E+00  2.579912E-02  4.344296E-03 -1.432975E-15 -1.073522E+00  0.000000E+00
  6.374670E-02  1.753625E-02  5.000000E-01  6.439209E-02  1.775209E-02  0.000000E+00  2.592899E-02  4.624835E-03 -2.447879E-15 -1.083577E+00  0.000000E+00
  5.579720E-02  1.607711E-02  5.000000E-01  5.636231E-02  1.627821E-02  0.000000E+00  2.603212E-02  4.915712E-03 -4.185395E-15 -1.096553E+00  0.000000E+00
  4.841260E-02  1.464339E-02  5.000000E-01  4.890313E-02  1.483002E-02  0.000000E+00  2.610667E-02  5.211669E-03 -7.129878E-15 -1.113441E+00  0.000000E+00
  4.158390E-02  1.324291E-02  5.000000E-01  4.200547E-02  1.341539E-02  0.000000E+00  2.615778E-02  5.519159E-03 -1.194536E-14 -1.134634E+00  0.000000E+00
  3.530370E-02  1.188052E-02  5.000000E-01  3.566185E-02  1.203924E-02  0.000000E+00  2.616650E-02  5.832866E-03 -1.926036E-14 -1.160968E+00  0.000000E+00
  2.956270E-02  1.056575E-02  5.000000E-01  2.986287E-02  1.071119E-02  0.000000E+00  2.610564E-02  6.147974E-03 -2.914708E-14 -1.193110E+00  0.000000E+00
  2.435310E-02  9.305121E-03  5.000000E-01  2.460066E-02  9.437835E-03  0.000000E+00  2.593522E-02  6.476357E-03 -4.032196E-14 -1.230472E+00  0.000000E+00
  1.967110E-02  8.099134E-03  5.000000E-01  1.987137E-02  8.219669E-03  0.000000E+00  2.552072E-02  6.788622E-03 -4.962367E-14 -1.273363E+00  0.000000E+00
  1.550860E-02  6.954950E-03  5.000000E-01  1.566684E-02  7.063930E-03  0.000000E+00  2.468433E-02  7.036324E-03 -5.291409E-14 -1.322091E+00  0.000000E+00
  1.185930E-02  5.876232E-03  5.000000E-01  1.198068E-02  5.974318E-03  0.000000E+00  2.332838E-02  7.212201E-03 -4.747655E-14 -1.374805E+00  0.000000E+00
  8.724160E-03  4.859163E-03  5.000000E-01  8.813883E-03  4.946978E-03  0.000000E+00  2.157875E-02  7.343874E-03 -3.416601E-14 -1.431049E+00  0.000000E+00
  6.091130E-03  3.911940E-03  5.000000E-01  6.154263E-03  3.990189E-03  0.000000E+00  2.032371E-02  7.820669E-03 -1.813169E-14 -1.486224E+00  0.000000E+00
  3.952840E-03  3.037283E-03  5.000000E-01  3.994378E-03  3.106698E-03  0.000000E+00  2.113549E-02  9.733956E-03 -6.504041E-15 -1.523400E+00  0.000000E+00
  2.330070E-03  2.222405E-03  5.000000E-01  2.355220E-03  2.283592E-03  0.000000E+00  2.423877E-02  1.419532E-02 -3.851251E-15 -1.531087E+00  0.000000E+00
  1.198080E-03  1.485420E-03  5.000000E-01  1.211798E-03  1.539164E-03  0.000000E+00  2.759960E-02  2.139015E-02 -9.914876E-15 -1.519247E+00  0.000000E+00
  5.019560E-04  8.593888E-04  5.000000E-01  5.086442E-04  9.068103E-04  0.000000E+00  3.041169E-02  3.350382E-02 -2.072098E-14 -1.530791E+00  0.000000E+00
  1.313430E-04  3.762248E-04  5.000000E-01  1.342884E-04  4.187669E-04  0.000000E+00  3.506356E-02  7.036311E-02 -3.080114E-14 -1.566087E+00  0.000000E+00
  8.078190E-06  6.807409E-05  5.000000E-01  9.778777E-06  1.075042E-04  0.000000E+00  3.054284E-02  1.732849E-01 -4.089768E-14 -1.484756E+00  0.000000E+00
 -1.602820E-06 -3.835531E-05  5.000000E-01  0.000000E+00  0.000000E+00  0.000000E+00 -4.944378E-03  2.521462E-01 -5.138435E-14 -1.190862E+00  0.000000E+00
  9.141860E-06 -1.484062E-04  5.000000E-01  1.085319E-05 -1.111623E-04  0.000000E+00 -4.976276E-02  1.967991E-01 -6.230062E-14 -4.687312E-01  0.000000E+00