 Title = "ADflow Slice Data"
Variables =  "CoordinateX"  "CoordinateY"  "CoordinateZ"  "XoC"  "YoC"  "ZoC" "VelocityX" "VelocityY" "VelocityZ" "CoefPressure" "Mach" 
Zone T= "Slice_0001 None Absolute Regular z = 0.50000000"
 Nodes =          192  Elements=          184  ZONETYPE=FELINESEG
 DATAPACKING=POINT
  5.667600E-01 -1.512090E-02  5.000000E-01  5.724853E-01 -1.523486E-02  0.000000E+00  1.341181E-02  1.530188E-03 -8.511679E-18  9.988870E-02  0.000000E+00
  5.873410E-01 -1.275927E-02  5.000000E-01  5.932741E-01 -1.284938E-02  0.000000E+00  1.290508E-02  1.479757E-03 -1.240777E-17  1.228757E-01  0.000000E+00
  6.076580E-01 -1.043151E-02  5.000000E-01  6.137963E-01 -1.049811E-02  0.000000E+00  1.246006E-02  1.418383E-03 -1.311244E-17  1.448337E-01  0.000000E+00
  6.276600E-01 -8.170146E-03  5.000000E-01  6.340003E-01 -8.213913E-03  0.000000E+00  1.207470E-02  1.350281E-03 -1.203360E-17  1.651653E-01  0.000000E+00
  6.472970E-01 -5.999655E-03  5.000000E-01  6.538356E-01 -6.021502E-03  0.000000E+00  1.173963E-02  1.280409E-03 -9.766318E-18  1.835061E-01  0.000000E+00
  6.665260E-01 -3.931902E-03  5.000000E-01  6.732588E-01 -3.932867E-03  0.000000E+00  1.144463E-02  1.211308E-03 -6.861402E-18  2.000636E-01  0.000000E+00
  6.853050E-01 -1.976560E-03  5.000000E-01  6.922274E-01 -1.957778E-03  0.000000E+00  1.118358E-02  1.140454E-03 -3.325832E-18  2.156310E-01  0.000000E+00
  7.035980E-01 -1.507686E-04  5.000000E-01  7.107052E-01 -1.135484E-04  0.000000E+00  1.094633E-02  1.065233E-03 -1.829075E-18  2.305509E-01  0.000000E+00
  7.213750E-01  1.533607E-03  5.000000E-01  7.286617E-01  1.587837E-03  0.000000E+00  1.071013E-02  9.860430E-04 -3.253320E-18  2.444930E-01  0.000000E+00
  7.386080E-01  3.072359E-03  5.000000E-01  7.460687E-01  3.142130E-03  0.000000E+00  1.044595E-02  9.049903E-04 -3.893023E-18  2.573847E-01  0.000000E+00
  7.552750E-01  4.470642E-03  5.000000E-01  7.629040E-01  4.554533E-03  0.000000E+00  1.013564E-02  8.263044E-04 -4.384730E-18  2.696569E-01  0.000000E+00
  7.713580E-01  5.741326E-03  5.000000E-01  7.791495E-01  5.838050E-03  0.000000E+00  9.791980E-03  7.517861E-04 -4.359314E-18  2.818679E-01  0.000000E+00
  7.868410E-01  6.895408E-03  5.000000E-01  7.947888E-01  7.003787E-03  0.000000E+00  9.481931E-03  6.641097E-04 -2.695270E-18  2.957417E-01  0.000000E+00
  8.017160E-01  7.872922E-03  5.000000E-01  8.098140E-01  7.991173E-03  0.000000E+00  9.306637E-03  5.403864E-04  2.826879E-18  3.116173E-01  0.000000E+00
  8.159740E-01  8.590492E-03  5.000000E-01  8.242160E-01  8.715989E-03  0.000000E+00  9.329756E-03  3.860586E-04  1.151460E-17  3.245282E-01  0.000000E+00
  8.296120E-01  9.030466E-03  5.000000E-01  8.379918E-01  9.160406E-03  0.000000E+00  9.555081E-03  2.187770E-04  1.728584E-17  3.296069E-01  0.000000E+00
  8.426300E-01  9.209096E-03  5.000000E-01  8.511412E-01  9.340840E-03  0.000000E+00  9.959201E-03  4.535387E-05  2.200761E-17  3.267963E-01  0.000000E+00
  8.550290E-01  9.157744E-03  5.000000E-01  8.636654E-01  9.288969E-03  0.000000E+00  1.051386E-02 -1.332157E-04  2.636843E-17  3.180815E-01  0.000000E+00
  8.668160E-01  8.914131E-03  5.000000E-01  8.755715E-01  9.042896E-03  0.000000E+00  1.119009E-02 -3.157893E-04  2.834348E-17  3.048117E-01  0.000000E+00
  8.779950E-01  8.519515E-03  5.000000E-01  8.868634E-01  8.644295E-03  0.000000E+00  1.195808E-02 -4.998111E-04  2.923580E-17  2.875474E-01  0.000000E+00
  8.885730E-01  8.013164E-03  5.000000E-01  8.975482E-01  8.132830E-03  0.000000E+00  1.278853E-02 -6.827045E-04  2.889976E-17  2.668770E-01  0.000000E+00
  8.985610E-01  7.428445E-03  5.000000E-01  9.076371E-01  7.542207E-03  0.000000E+00  1.364884E-02 -8.577206E-04  2.528603E-17  2.433220E-01  0.000000E+00
  9.079670E-01  6.799131E-03  5.000000E-01  9.171381E-01  6.906537E-03  0.000000E+00  1.449972E-02 -1.012490E-03  2.006362E-17  2.173444E-01  0.000000E+00
  9.168010E-01  6.157726E-03  5.000000E-01  9.260613E-01  6.258654E-03  0.000000E+00  1.530357E-02 -1.137869E-03  1.317770E-17  1.900017E-01  0.000000E+00
  9.168010E-01  6.157726E-03  5.000000E-01  9.260613E-01  6.258654E-03  0.000000E+00  1.530357E-02 -1.137869E-03  1.317770E-17  1.900017E-01  0.000000E+00
  9.250730E-01  5.529033E-03  5.000000E-01  9.344168E-01  5.623613E-03  0.000000E+00  1.603719E-02 -1.235088E-03  1.410535E-17  1.628185E-01  0.000000E+00
  9.327940E-01  4.927293E-03  5.000000E-01  9.422158E-01  5.015796E-03  0.000000E+00  1.670007E-02 -1.315848E-03  2.580027E-17  1.371084E-01  0.000000E+00
  9.399760E-01  4.355781E-03  5.000000E-01  9.494703E-01  4.438512E-03  0.000000E+00  1.730844E-02 -1.391689E-03  5.010740E-17  1.131400E-01  0.000000E+00
  9.466320E-01  3.815200E-03  5.000000E-01  9.561935E-01  3.892472E-03  0.000000E+00  1.788247E-02 -1.467140E-03  1.079131E-16  9.017572E-02  0.000000E+00
  9.527730E-01  3.306371E-03  5.000000E-01  9.623965E-01  3.378504E-03  0.000000E+00  1.844683E-02 -1.548697E-03  2.183469E-16  6.767605E-02  0.000000E+00
  9.584110E-01  2.827154E-03  5.000000E-01  9.680915E-01  2.894448E-03  0.000000E+00  1.903424E-02 -1.647006E-03  3.978974E-16  4.540865E-02  0.000000E+00
  9.635570E-01  2.374318E-03  5.000000E-01  9.732895E-01  2.437039E-03  0.000000E+00  1.967858E-02 -1.767948E-03  6.517354E-16  2.265585E-02  0.000000E+00
  9.682220E-01  1.946793E-03  5.000000E-01  9.780016E-01  2.005196E-03  0.000000E+00  2.041199E-02 -1.912159E-03  9.970992E-16 -1.670976E-03  0.000000E+00
  9.724140E-01  1.545859E-03  5.000000E-01  9.822359E-01  1.600213E-03  0.000000E+00  2.128250E-02 -2.087646E-03  1.549863E-15 -2.820247E-02  0.000000E+00
  9.761430E-01  1.171440E-03  5.000000E-01  9.860026E-01  1.222013E-03  0.000000E+00  2.237224E-02 -2.311569E-03  2.606388E-15 -5.739093E-02  0.000000E+00
  9.794160E-01  8.242704E-04  5.000000E-01  9.893086E-01  8.713373E-04  0.000000E+00  2.378321E-02 -2.597351E-03  4.491244E-15 -9.031761E-02  0.000000E+00
  9.822400E-01  5.074293E-04  5.000000E-01  9.921611E-01  5.512965E-04  0.000000E+00  2.556633E-02 -2.947187E-03  7.054557E-15 -1.284358E-01  0.000000E+00
  9.846200E-01  2.260650E-04  5.000000E-01  9.945652E-01  2.670907E-04  0.000000E+00  2.759058E-02 -3.347858E-03  9.357851E-15 -1.720946E-01  0.000000E+00
  9.865620E-01 -1.453607E-05  5.000000E-01  9.965268E-01  2.405984E-05  0.000000E+00  2.940958E-02 -3.711579E-03  1.129618E-14 -2.194033E-01  0.000000E+00
  9.880680E-01 -2.086060E-04  5.000000E-01  9.980480E-01 -1.719700E-04  0.000000E+00  2.987556E-02 -3.826695E-03  1.656667E-14 -2.766122E-01  0.000000E+00
  9.891420E-01 -3.514239E-04  5.000000E-01  9.991328E-01 -3.162302E-04  0.000000E+00  2.812835E-02 -3.911129E-03  1.412124E-14 -3.434966E-01  0.000000E+00
  9.897860E-01 -4.389487E-04  5.000000E-01  9.997833E-01 -4.046389E-04  0.000000E+00  3.788605E-02 -4.013261E-03 -1.079485E-13 -2.893912E-01  0.000000E+00
  9.900000E-01 -4.683023E-04  5.000000E-01  9.999995E-01 -4.342889E-04  0.000000E+00  2.618837E-02  5.267625E-03  4.068264E-14 -5.820153E-01  0.000000E+00
  9.900000E-01 -1.843754E-04  5.000000E-01  9.999995E-01 -1.474947E-04  0.000000E+00  1.229771E-03 -7.885223E-03  1.450570E-13 -8.088085E-01  0.000000E+00
  9.900000E-01  9.955150E-05  5.000000E-01  9.999995E-01  1.392996E-04  0.000000E+00 -4.468910E-04 -2.274864E-02 -9.874715E-15 -6.283584E-01  0.000000E+00
  9.900000E-01  3.834784E-04  5.000000E-01  9.999995E-01  4.260938E-04  0.000000E+00 -1.436001E-04 -8.862964E-03  1.246025E-14 -6.283144E-01  0.000000E+00
  9.900000E-01  6.674053E-04  5.000000E-01  9.999995E-01  7.128880E-04  0.000000E+00  4.646600E-04 -5.229928E-03  4.482698E-14 -6.881951E-01  0.000000E+00
  9.900000E-01  9.513321E-04  5.000000E-01  9.999995E-01  9.996822E-04  0.000000E+00  6.797358E-03 -6.632431E-03  5.001150E-14 -6.299439E-01  0.000000E+00
  9.900000E-01  9.513321E-04  5.000000E-01  9.999995E-01  9.996822E-04  0.000000E+00  6.797358E-03 -6.632431E-03  5.001150E-14 -6.299439E-01  0.000000E+00
  9.897890E-01  1.017904E-03  5.000000E-01  9.997864E-01  1.066926E-03  0.000000E+00  9.015795E-03 -3.469595E-03  3.283181E-14 -5.523834E-01  0.000000E+00
  9.891540E-01  1.218674E-03  5.000000E-01  9.991450E-01  1.269724E-03  0.000000E+00  4.567799E-03 -1.351286E-03  2.141686E-14 -5.709858E-01  0.000000E+00
  9.880950E-01  1.555408E-03  5.000000E-01  9.980753E-01  1.609858E-03  0.000000E+00  3.024814E-03 -9.609314E-04  1.379417E-14 -5.705458E-01  0.000000E+00
  9.866100E-01  2.031333E-03  5.000000E-01  9.965753E-01  2.090590E-03  0.000000E+00  1.983776E-03 -6.497856E-04  7.371209E-15 -5.626460E-01  0.000000E+00
  9.846960E-01  2.650662E-03  5.000000E-01  9.946419E-01  2.716174E-03  0.000000E+00  9.959192E-04 -3.234666E-04  3.539951E-15 -5.590081E-01  0.000000E+00
  9.823490E-01  3.418251E-03  5.000000E-01  9.922712E-01  3.491515E-03  0.000000E+00  1.849905E-04 -5.918720E-05  1.654542E-15 -5.580287E-01  0.000000E+00
  9.795670E-01  4.338749E-03  5.000000E-01  9.894611E-01  4.421308E-03  0.000000E+00 -4.278284E-04  1.427312E-04  7.142077E-16 -5.582706E-01  0.000000E+00
  9.763420E-01  5.417935E-03  5.000000E-01  9.862036E-01  5.511392E-03  0.000000E+00 -8.715998E-04  2.932873E-04  2.715669E-16 -5.597152E-01  0.000000E+00
  9.726710E-01  6.659543E-03  5.000000E-01  9.824955E-01  6.765540E-03  0.000000E+00 -1.170632E-03  3.977054E-04  8.369647E-17 -5.622490E-01  0.000000E+00
  9.685460E-01  8.066753E-03  5.000000E-01  9.783288E-01  8.186961E-03  0.000000E+00 -1.342207E-03  4.594687E-04  1.566707E-17 -5.654524E-01  0.000000E+00
  9.639600E-01  9.641707E-03  5.000000E-01  9.736965E-01  9.777820E-03  0.000000E+00 -1.402961E-03  4.831432E-04 -3.374584E-18 -5.688175E-01  0.000000E+00
  9.589060E-01  1.138655E-02  5.000000E-01  9.685915E-01  1.154029E-02  0.000000E+00 -1.373310E-03  4.749997E-04 -6.951855E-18 -5.718684E-01  0.000000E+00
  9.533750E-01  1.330247E-02  5.000000E-01  9.630046E-01  1.347555E-02  0.000000E+00 -1.279119E-03  4.433657E-04 -7.206478E-18 -5.742415E-01  0.000000E+00
  9.473580E-01  1.538821E-02  5.000000E-01  9.569269E-01  1.558236E-02  0.000000E+00 -1.150219E-03  3.983919E-04 -6.912806E-18 -5.757515E-01  0.000000E+00
  9.408450E-01  1.764045E-02  5.000000E-01  9.503481E-01  1.785734E-02  0.000000E+00 -1.016823E-03  3.507767E-04 -5.894008E-18 -5.764281E-01  0.000000E+00
  9.338260E-01  2.005389E-02  5.000000E-01  9.432582E-01  2.029516E-02  0.000000E+00 -9.056291E-04  3.100151E-04 -2.309998E-18 -5.764995E-01  0.000000E+00
  9.262910E-01  2.262009E-02  5.000000E-01  9.356471E-01  2.288727E-02  0.000000E+00 -8.372166E-04  2.831360E-04  6.161850E-18 -5.763183E-01  0.000000E+00
  9.182290E-01  2.532623E-02  5.000000E-01  9.275037E-01  2.562074E-02  0.000000E+00 -8.254912E-04  2.742214E-04  1.710398E-17 -5.762553E-01  0.000000E+00
  9.096280E-01  2.815459E-02  5.000000E-01  9.188158E-01  2.847766E-02  0.000000E+00 -8.781365E-04  2.845118E-04  3.015864E-17 -5.766708E-01  0.000000E+00
  9.004770E-01  3.108169E-02  5.000000E-01  9.095724E-01  3.143432E-02  0.000000E+00 -9.969775E-04  3.126279E-04  4.517409E-17 -5.778800E-01  0.000000E+00
  8.907650E-01  3.407660E-02  5.000000E-01  8.997623E-01  3.445948E-02  0.000000E+00 -1.179222E-03  3.542490E-04  4.978804E-17 -5.799681E-01  0.000000E+00
  8.804800E-01  3.709793E-02  5.000000E-01  8.893735E-01  3.751132E-02  0.000000E+00 -1.418028E-03  4.017090E-04  4.326424E-17 -5.828355E-01  0.000000E+00
  8.696090E-01  4.008991E-02  5.000000E-01  8.783927E-01  4.053352E-02  0.000000E+00 -1.699105E-03  4.455678E-04  3.856914E-17 -5.864170E-01  0.000000E+00
  8.696090E-01  4.008991E-02  5.000000E-01  8.783927E-01  4.053352E-02  0.000000E+00 -1.699105E-03  4.455678E-04  3.856914E-17 -5.864170E-01  0.000000E+00
  8.581400E-01  4.298047E-02  5.000000E-01  8.668079E-01  4.345327E-02  0.000000E+00 -2.002422E-03  4.769009E-04  2.693963E-17 -5.897234E-01  0.000000E+00
  8.460600E-01  4.568543E-02  5.000000E-01  8.546059E-01  4.618554E-02  0.000000E+00 -2.310213E-03  4.855526E-04  1.657737E-17 -5.905544E-01  0.000000E+00
  8.333640E-01  4.812492E-02  5.000000E-01  8.417817E-01  4.864967E-02  0.000000E+00 -2.567422E-03  4.509389E-04 -7.090317E-18 -5.921080E-01  0.000000E+00
  8.200460E-01  5.022336E-02  5.000000E-01  8.283292E-01  5.076930E-02  0.000000E+00 -2.540679E-03  3.448724E-04 -9.563160E-17 -6.136444E-01  0.000000E+00
  8.061050E-01  5.191333E-02  5.000000E-01  8.142474E-01  5.247634E-02  0.000000E+00 -1.648282E-03  1.621409E-04 -2.238949E-16 -6.844028E-01  0.000000E+00
  7.915460E-01  5.316907E-02  5.000000E-01  7.995413E-01  5.374476E-02  0.000000E+00  9.923412E-04 -5.250044E-05 -3.328863E-16 -8.104005E-01  0.000000E+00
  7.763770E-01  5.402981E-02  5.000000E-01  7.842191E-01  5.461419E-02  0.000000E+00  5.991140E-03 -2.164790E-04 -3.249054E-16 -9.517172E-01  0.000000E+00
  7.606070E-01  5.456484E-02  5.000000E-01  7.682899E-01  5.515463E-02  0.000000E+00  1.260945E-02 -2.326998E-04 -1.572988E-16 -1.050193E+00  0.000000E+00
  7.442510E-01  5.478150E-02  5.000000E-01  7.517687E-01  5.537347E-02  0.000000E+00  1.845450E-02 -4.496043E-05  5.631770E-17 -1.081601E+00  0.000000E+00
  7.273250E-01  5.469763E-02  5.000000E-01  7.346718E-01  5.528876E-02  0.000000E+00  2.145706E-02  2.562050E-04  2.462243E-16 -1.067292E+00  0.000000E+00
  7.098490E-01  5.436572E-02  5.000000E-01  7.170193E-01  5.495349E-02  0.000000E+00  2.167886E-02  4.875454E-04  3.802108E-16 -1.042298E+00  0.000000E+00
  6.918480E-01  5.388183E-02  5.000000E-01  6.988365E-01  5.446472E-02  0.000000E+00  2.053741E-02  5.378161E-04  3.862082E-16 -1.031198E+00  0.000000E+00
  6.733520E-01  5.339611E-02  5.000000E-01  6.801537E-01  5.397409E-02  0.000000E+00  1.933099E-02  3.966236E-04  2.713106E-16 -1.044709E+00  0.000000E+00
  6.543930E-01  5.310811E-02  5.000000E-01  6.610032E-01  5.368318E-02  0.000000E+00  1.875459E-02  1.294299E-04  1.289883E-16 -1.079364E+00  0.000000E+00
  6.350090E-01  5.313747E-02  5.000000E-01  6.414235E-01  5.371284E-02  0.000000E+00  1.903435E-02 -1.468034E-04  3.244249E-17 -1.119808E+00  0.000000E+00
  6.152440E-01  5.341693E-02  5.000000E-01  6.214589E-01  5.399513E-02  0.000000E+00  1.996347E-02 -3.486281E-04 -2.690981E-18 -1.151524E+00  0.000000E+00
  5.951420E-01  5.383647E-02  5.000000E-01  6.011539E-01  5.441890E-02  0.000000E+00  2.108741E-02 -4.395279E-04  7.568846E-18 -1.167553E+00  0.000000E+00
  5.747530E-01  5.426568E-02  5.000000E-01  5.805590E-01  5.485245E-02  0.000000E+00  2.203840E-02 -3.839940E-04  3.667287E-17 -1.165434E+00  0.000000E+00
  5.541290E-01  5.455981E-02  5.000000E-01  5.597267E-01  5.514955E-02  0.000000E+00  2.264738E-02 -1.704725E-04  5.106257E-17 -1.146602E+00  0.000000E+00
  5.333260E-01  5.458123E-02  5.000000E-01  5.387136E-01  5.517118E-02  0.000000E+00  2.285315E-02  1.287737E-04  3.104637E-17 -1.118458E+00  0.000000E+00
  5.124010E-01  5.431925E-02  5.000000E-01  5.175773E-01  5.490656E-02  0.000000E+00  2.270620E-02  4.073160E-04 -5.229397E-18 -1.090540E+00  0.000000E+00
  4.914140E-01  5.382398E-02  5.000000E-01  4.963783E-01  5.440629E-02  0.000000E+00  2.239016E-02  6.211504E-04 -2.667368E-17 -1.068257E+00  0.000000E+00
  4.704230E-01  5.315127E-02  5.000000E-01  4.751754E-01  5.372678E-02  0.000000E+00  2.208381E-02  7.684222E-04 -1.558192E-17 -1.053655E+00  0.000000E+00
  1.696960E-04 -4.810013E-04  5.000000E-01  1.730287E-04 -4.471162E-04  0.000000E+00 -6.436948E-02  9.282100E-02 -7.550007E-13  5.409116E-01  0.000000E+00
  8.054360E-04 -9.781859E-04  5.000000E-01  8.151890E-04 -9.493217E-04  0.000000E+00 -4.693412E-02  3.286234E-02 -2.861882E-13  1.106832E+00  0.000000E+00
  1.973980E-03 -1.585099E-03  5.000000E-01  1.995534E-03 -1.562364E-03  0.000000E+00 -2.105153E-02  1.047951E-02 -5.075755E-14  1.176614E+00  0.000000E+00
  3.614630E-03 -2.299724E-03  5.000000E-01  3.652753E-03 -2.284206E-03  0.000000E+00 -4.055468E-03  1.772907E-03  2.185027E-14  1.152925E+00  0.000000E+00
  5.721210E-03 -3.130488E-03  5.000000E-01  5.780607E-03 -3.123360E-03  0.000000E+00  5.020198E-03 -1.863736E-03  2.762519E-14  1.122580E+00  0.000000E+00
  8.297500E-03 -4.074913E-03  5.000000E-01  8.382914E-03 -4.077322E-03  0.000000E+00  9.329716E-03 -3.267922E-03  1.995160E-14  1.078246E+00  0.000000E+00
  1.136560E-02 -5.113390E-03  5.000000E-01  1.148200E-02 -5.126287E-03  0.000000E+00  1.109807E-02 -3.619101E-03  1.254047E-14  1.023816E+00  0.000000E+00
  1.493280E-02 -6.234675E-03  5.000000E-01  1.508522E-02 -6.258895E-03  0.000000E+00  1.169362E-02 -3.584648E-03  7.135981E-15  9.693047E-01  0.000000E+00
  1.899460E-02 -7.447076E-03  5.000000E-01  1.918804E-02 -7.483540E-03  0.000000E+00  1.195004E-02 -3.514723E-03  3.714439E-15  9.186115E-01  0.000000E+00
  2.354800E-02 -8.766644E-03  5.000000E-01  2.378743E-02 -8.816435E-03  0.000000E+00  1.228450E-02 -3.506768E-03  1.836052E-15  8.687300E-01  0.000000E+00
  2.860130E-02 -1.018889E-02  5.000000E-01  2.889176E-02 -1.025304E-02  0.000000E+00  1.281569E-02 -3.545771E-03  9.135492E-16  8.170143E-01  0.000000E+00
  3.416500E-02 -1.170273E-02  5.000000E-01  3.451165E-02 -1.178217E-02  0.000000E+00  1.352515E-02 -3.613183E-03  4.830815E-16  7.646886E-01  0.000000E+00
  4.024810E-02 -1.329897E-02  5.000000E-01  4.065618E-02 -1.339453E-02  0.000000E+00  1.435424E-02 -3.689800E-03  2.843122E-16  7.126640E-01  0.000000E+00
  4.686030E-02 -1.496532E-02  5.000000E-01  4.733516E-02 -1.507771E-02  0.000000E+00  1.523857E-02 -3.755784E-03  1.956228E-16  6.607243E-01  0.000000E+00
  5.401090E-02 -1.669008E-02  5.000000E-01  5.455797E-02 -1.681989E-02  0.000000E+00  1.613137E-02 -3.802742E-03  1.603297E-16  6.089386E-01  0.000000E+00
  6.170850E-02 -1.846464E-02  5.000000E-01  6.233331E-02 -1.861237E-02  0.000000E+00  1.700706E-02 -3.822349E-03  1.532891E-16  5.569344E-01  0.000000E+00
  6.996310E-02 -2.027467E-02  5.000000E-01  7.067127E-02 -2.044067E-02  0.000000E+00  1.785187E-02 -3.802100E-03  1.648347E-16  5.040086E-01  0.000000E+00
  7.878500E-02 -2.210053E-02  5.000000E-01  7.958226E-02 -2.228498E-02  0.000000E+00  1.866269E-02 -3.738378E-03  1.987213E-16  4.503585E-01  0.000000E+00
  8.818390E-02 -2.392309E-02  5.000000E-01  8.907608E-02 -2.412595E-02  0.000000E+00  1.944093E-02 -3.631273E-03  2.723178E-16  3.964188E-01  0.000000E+00
  9.816930E-02 -2.571981E-02  5.000000E-01  9.916232E-02 -2.594081E-02  0.000000E+00  2.018114E-02 -3.476134E-03  3.845469E-16  3.422498E-01  0.000000E+00
  1.087500E-01 -2.746381E-02  5.000000E-01  1.098499E-01 -2.770242E-02  0.000000E+00  2.086715E-02 -3.269477E-03  4.891354E-16  2.882738E-01  0.000000E+00
  1.199340E-01 -2.912778E-02  5.000000E-01  1.211468E-01 -2.938320E-02  0.000000E+00  2.146411E-02 -3.006289E-03  5.639489E-16  2.351947E-01  0.000000E+00
  1.317280E-01 -3.067965E-02  5.000000E-01  1.330599E-01 -3.095073E-02  0.000000E+00  2.191138E-02 -2.677732E-03  6.523014E-16  1.838609E-01  0.000000E+00
  1.441380E-01 -3.208206E-02  5.000000E-01  1.455952E-01 -3.236731E-02  0.000000E+00  2.213779E-02 -2.283773E-03  6.240175E-16  1.360567E-01  0.000000E+00
  1.441380E-01 -3.208206E-02  5.000000E-01  1.455952E-01 -3.236731E-02  0.000000E+00  2.213779E-02 -2.283773E-03  6.240175E-16  1.360567E-01  0.000000E+00
  1.571670E-01 -3.329855E-02  5.000000E-01  1.587558E-01 -3.359608E-02  0.000000E+00  2.209220E-02 -1.838122E-03  5.543262E-16  9.435893E-02  0.000000E+00
  1.708170E-01 -3.429420E-02  5.000000E-01  1.725437E-01 -3.460179E-02  0.000000E+00  2.178413E-02 -1.370477E-03  4.412876E-16  6.149978E-02  0.000000E+00
  1.850860E-01 -3.504530E-02  5.000000E-01  1.869568E-01 -3.536048E-02  0.000000E+00  2.131742E-02 -9.337984E-04  2.327583E-16  3.982958E-02  0.000000E+00
  1.999720E-01 -3.556046E-02  5.000000E-01  2.019931E-01 -3.588084E-02  0.000000E+00  2.087265E-02 -5.963714E-04  1.033145E-16  3.008210E-02  0.000000E+00
  2.154670E-01 -3.590525E-02  5.000000E-01  2.176446E-01 -3.622911E-02  0.000000E+00  2.059283E-02 -3.845707E-04  1.045903E-17  2.788819E-02  0.000000E+00
  2.315610E-01 -3.614984E-02  5.000000E-01  2.339011E-01 -3.647617E-02  0.000000E+00  2.046553E-02 -2.365211E-04 -7.375546E-17  2.317006E-02  0.000000E+00
  2.482400E-01 -3.628591E-02  5.000000E-01  2.507486E-01 -3.661362E-02  0.000000E+00  2.039622E-02 -8.598592E-05 -1.377312E-16  1.044755E-02  0.000000E+00
  2.654840E-01 -3.629146E-02  5.000000E-01  2.681667E-01 -3.661922E-02  0.000000E+00  2.031784E-02  8.201748E-05 -1.686516E-16 -7.125656E-03  0.000000E+00
  2.832720E-01 -3.614101E-02  5.000000E-01  2.861343E-01 -3.646725E-02  0.000000E+00  2.019296E-02  2.651816E-04 -1.660994E-16 -2.452103E-02  0.000000E+00
  3.015770E-01 -3.581327E-02  5.000000E-01  3.046242E-01 -3.613620E-02  0.000000E+00  2.000590E-02  4.541197E-04 -1.410466E-16 -3.833015E-02  0.000000E+00
  3.203660E-01 -3.529492E-02  5.000000E-01  3.236030E-01 -3.561262E-02  0.000000E+00  1.975470E-02  6.384596E-04 -1.088795E-16 -4.740149E-02  0.000000E+00
  3.396030E-01 -3.458068E-02  5.000000E-01  3.430342E-01 -3.489117E-02  0.000000E+00  1.944271E-02  8.116507E-04 -8.251168E-17 -5.207676E-02  0.000000E+00
  3.592490E-01 -3.366854E-02  5.000000E-01  3.628786E-01 -3.396981E-02  0.000000E+00  1.907287E-02  9.716639E-04 -6.916704E-17 -5.312827E-02  0.000000E+00
  3.792580E-01 -3.255730E-02  5.000000E-01  3.830897E-01 -3.284735E-02  0.000000E+00  1.864812E-02  1.117238E-03 -6.733591E-17 -5.094010E-02  0.000000E+00
  3.995810E-01 -3.124874E-02  5.000000E-01  4.036179E-01 -3.152557E-02  0.000000E+00  1.817239E-02  1.245997E-03 -7.046768E-17 -4.542854E-02  0.000000E+00
  4.201670E-01 -2.974883E-02  5.000000E-01  4.244118E-01 -3.001052E-02  0.000000E+00  1.764857E-02  1.356246E-03 -7.016454E-17 -3.650332E-02  0.000000E+00
  4.409600E-01 -2.806556E-02  5.000000E-01  4.454148E-01 -2.831025E-02  0.000000E+00  1.707907E-02  1.447429E-03 -6.101623E-17 -2.428073E-02  0.000000E+00
  4.619030E-01 -2.620844E-02  5.000000E-01  4.665693E-01 -2.643437E-02  0.000000E+00  1.647156E-02  1.517618E-03 -4.553813E-17 -8.850232E-03  0.000000E+00
  4.829360E-01 -2.419481E-02  5.000000E-01  4.878147E-01 -2.440041E-02  0.000000E+00  1.584041E-02  1.564288E-03 -2.872032E-17  9.607960E-03  0.000000E+00
  5.039990E-01 -2.204854E-02  5.000000E-01  5.090904E-01 -2.223246E-02  0.000000E+00  1.520270E-02  1.586671E-03 -1.466882E-17  3.055432E-02  0.000000E+00
  5.250310E-01 -1.979935E-02  5.000000E-01  5.303348E-01 -1.996056E-02  0.000000E+00  1.457533E-02  1.586180E-03 -7.140636E-18  5.316436E-02  0.000000E+00
  5.459710E-01 -1.747970E-02  5.000000E-01  5.514863E-01 -1.761748E-02  0.000000E+00  1.397326E-02  1.566378E-03 -5.593898E-18  7.649515E-02  0.000000E+00
  5.667600E-01 -1.512090E-02  5.000000E-01  5.724853E-01 -1.523486E-02  0.000000E+00  1.341181E-02  1.530188E-03 -8.511679E-18  9.988870E-02  0.000000E+00
  4.704230E-01  5.315127E-02  5.000000E-01  4.751754E-01  5.372678E-02  0.000000E+00  2.208381E-02  7.684222E-04 -1.558192E-17 -1.053655E+00  0.000000E+00
  4.494880E-01  5.236177E-02  5.000000E-01  4.540289E-01  5.292931E-02  0.000000E+00  2.188908E-02  8.563032E-04  1.025610E-17 -1.046913E+00  0.000000E+00
  4.286690E-01  5.151603E-02  5.000000E-01  4.329997E-01  5.207503E-02  0.000000E+00  2.185892E-02  9.112461E-04  2.534572E-17 -1.045625E+00  0.000000E+00
  4.080230E-01  5.063482E-02  5.000000E-01  4.121452E-01  5.118492E-02  0.000000E+00  2.200118E-02  9.726041E-04  2.801287E-17 -1.045760E+00  0.000000E+00
  3.876050E-01  4.970326E-02  5.000000E-01  3.915210E-01  5.024394E-02  0.000000E+00  2.225410E-02  1.058245E-03  2.102915E-17 -1.044708E+00  0.000000E+00
  3.674690E-01  4.870800E-02  5.000000E-01  3.711816E-01  4.923864E-02  0.000000E+00  2.252962E-02  1.165203E-03  9.953859E-18 -1.041795E+00  0.000000E+00
  3.476650E-01  4.763906E-02  5.000000E-01  3.511776E-01  4.815890E-02  0.000000E+00  2.277218E-02  1.289160E-03 -1.122448E-18 -1.037079E+00  0.000000E+00
  3.282390E-01  4.648878E-02  5.000000E-01  3.315555E-01  4.699700E-02  0.000000E+00  2.296508E-02  1.427312E-03 -1.056170E-17 -1.030914E+00  0.000000E+00
  3.092330E-01  4.525198E-02  5.000000E-01  3.123575E-01  4.574771E-02  0.000000E+00  2.311081E-02  1.574501E-03 -1.860101E-17 -1.023939E+00  0.000000E+00
  2.906860E-01  4.393163E-02  5.000000E-01  2.936232E-01  4.441403E-02  0.000000E+00  2.321905E-02  1.725615E-03 -2.555145E-17 -1.016786E+00  0.000000E+00
  2.726330E-01  4.253336E-02  5.000000E-01  2.753879E-01  4.300164E-02  0.000000E+00  2.330216E-02  1.879817E-03 -3.191309E-17 -1.009716E+00  0.000000E+00
  2.551020E-01  4.106266E-02  5.000000E-01  2.576799E-01  4.151609E-02  0.000000E+00  2.336854E-02  2.038209E-03 -3.923007E-17 -1.002731E+00  0.000000E+00
  2.381210E-01  3.952547E-02  5.000000E-01  2.405274E-01  3.996337E-02  0.000000E+00  2.342409E-02  2.204196E-03 -4.628432E-17 -9.956811E-01  0.000000E+00
  2.217090E-01  3.792397E-02  5.000000E-01  2.239496E-01  3.834571E-02  0.000000E+00  2.346857E-02  2.379004E-03 -5.039861E-17 -9.888703E-01  0.000000E+00
  2.058840E-01  3.626069E-02  5.000000E-01  2.079648E-01  3.666563E-02  0.000000E+00  2.348224E-02  2.541390E-03 -5.048478E-17 -9.845096E-01  0.000000E+00
  1.906600E-01  3.456320E-02  5.000000E-01  1.925871E-01  3.495100E-02  0.000000E+00  2.345745E-02  2.655114E-03 -4.782310E-17 -9.859902E-01  0.000000E+00
  1.760460E-01  3.288190E-02  5.000000E-01  1.778255E-01  3.325271E-02  0.000000E+00  2.346110E-02  2.724883E-03 -4.509586E-17 -9.938298E-01  0.000000E+00
  1.620500E-01  3.124089E-02  5.000000E-01  1.636881E-01  3.159513E-02  0.000000E+00  2.358451E-02  2.792795E-03 -4.105092E-17 -1.005274E+00  0.000000E+00
  1.486750E-01  2.964236E-02  5.000000E-01  1.501781E-01  2.998045E-02  0.000000E+00  2.384851E-02  2.888484E-03 -3.578718E-17 -1.017407E+00  0.000000E+00
  1.359210E-01  2.807812E-02  5.000000E-01  1.372953E-01  2.840042E-02  0.000000E+00  2.420290E-02  3.019847E-03 -3.788718E-17 -1.028484E+00  0.000000E+00
  1.237890E-01  2.653937E-02  5.000000E-01  1.250407E-01  2.684614E-02  0.000000E+00  2.457720E-02  3.184263E-03 -5.686998E-17 -1.037862E+00  0.000000E+00
  1.122730E-01  2.501660E-02  5.000000E-01  1.134084E-01  2.530798E-02  0.000000E+00  2.492000E-02  3.376572E-03 -9.994037E-17 -1.045637E+00  0.000000E+00
  1.013710E-01  2.350414E-02  5.000000E-01  1.023964E-01  2.378025E-02  0.000000E+00  2.520855E-02  3.590289E-03 -1.868048E-16 -1.052420E+00  0.000000E+00
  9.107400E-02  2.199999E-02  5.000000E-01  9.199536E-02  2.226091E-02  0.000000E+00  2.544650E-02  3.824620E-03 -3.432200E-16 -1.058786E+00  0.000000E+00
  9.107400E-02  2.199999E-02  5.000000E-01  9.199536E-02  2.226091E-02  0.000000E+00  2.544650E-02  3.824620E-03 -3.432200E-16 -1.058786E+00  0.000000E+00
  8.137660E-02  2.050190E-02  5.000000E-01  8.220003E-02  2.074768E-02  0.000000E+00  2.564189E-02  4.077933E-03 -6.289742E-16 -1.065482E+00  0.000000E+00
  7.227050E-02  1.901228E-02  5.000000E-01  7.300197E-02  1.924303E-02  0.000000E+00  2.579913E-02  4.344296E-03 -1.158502E-15 -1.073523E+00  0.000000E+00
  6.374670E-02  1.753625E-02  5.000000E-01  6.439209E-02  1.775209E-02  0.000000E+00  2.592900E-02  4.624835E-03 -2.122169E-15 -1.083577E+00  0.000000E+00
  5.579720E-02  1.607711E-02  5.000000E-01  5.636231E-02  1.627821E-02  0.000000E+00  2.603213E-02  4.915712E-03 -3.841492E-15 -1.096553E+00  0.000000E+00
  4.841260E-02  1.464339E-02  5.000000E-01  4.890313E-02  1.483001E-02  0.000000E+00  2.610668E-02  5.211669E-03 -6.792575E-15 -1.113442E+00  0.000000E+00
  4.158390E-02  1.324291E-02  5.000000E-01  4.200547E-02  1.341539E-02  0.000000E+00  2.615779E-02  5.519159E-03 -1.156623E-14 -1.134634E+00  0.000000E+00
  3.530370E-02  1.188052E-02  5.000000E-01  3.566185E-02  1.203924E-02  0.000000E+00  2.616651E-02  5.832867E-03 -1.865321E-14 -1.160968E+00  0.000000E+00
  2.956270E-02  1.056574E-02  5.000000E-01  2.986287E-02  1.071119E-02  0.000000E+00  2.610565E-02  6.147976E-03 -2.801331E-14 -1.193110E+00  0.000000E+00
  2.435310E-02  9.305120E-03  5.000000E-01  2.460066E-02  9.437833E-03  0.000000E+00  2.593523E-02  6.476358E-03 -3.847443E-14 -1.230472E+00  0.000000E+00
  1.967110E-02  8.099133E-03  5.000000E-01  1.987137E-02  8.219668E-03  0.000000E+00  2.552074E-02  6.788624E-03 -4.749392E-14 -1.273363E+00  0.000000E+00
  1.550860E-02  6.954950E-03  5.000000E-01  1.566684E-02  7.063929E-03  0.000000E+00  2.468434E-02  7.036327E-03 -5.234261E-14 -1.322091E+00  0.000000E+00
  1.185930E-02  5.876231E-03  5.000000E-01  1.198068E-02  5.974317E-03  0.000000E+00  2.332840E-02  7.212205E-03 -5.245395E-14 -1.374805E+00  0.000000E+00
  8.724160E-03  4.859163E-03  5.000000E-01  8.813883E-03  4.946978E-03  0.000000E+00  2.157877E-02  7.343878E-03 -5.028457E-14 -1.431049E+00  0.000000E+00
  6.091130E-03  3.911940E-03  5.000000E-01  6.154263E-03  3.990189E-03  0.000000E+00  2.032372E-02  7.820674E-03 -4.752893E-14 -1.486224E+00  0.000000E+00
  3.952840E-03  3.037282E-03  5.000000E-01  3.994378E-03  3.106698E-03  0.000000E+00  2.113550E-02  9.733961E-03 -3.492099E-14 -1.523400E+00  0.000000E+00
  2.330070E-03  2.222405E-03  5.000000E-01  2.355220E-03  2.283592E-03  0.000000E+00  2.423878E-02  1.419532E-02 -2.983130E-15 -1.531087E+00  0.000000E+00
  1.198080E-03  1.485420E-03  5.000000E-01  1.211798E-03  1.539164E-03  0.000000E+00  2.759961E-02  2.139016E-02 -1.864531E-14 -1.519247E+00  0.000000E+00
  5.019560E-04  8.593887E-04  5.000000E-01  5.086442E-04  9.068103E-04  0.000000E+00  3.041169E-02  3.350382E-02 -1.732835E-13 -1.530791E+00  0.000000E+00
  1.313430E-04  3.762247E-04  5.000000E-01  1.342884E-04  4.187669E-04  0.000000E+00  3.506356E-02  7.036313E-02  1.459877E-14 -1.566086E+00  0.000000E+00
  8.078190E-06  6.807403E-05  5.000000E-01  9.778777E-06  1.075042E-04  0.000000E+00  3.054284E-02  1.732849E-01  2.988204E-12 -1.484756E+00  0.000000E+00
 -1.602820E-06 -3.835536E-05  5.000000E-01  0.000000E+00  0.000000E+00  0.000000E+00 -4.944377E-03  2.521462E-01  2.648110E-12 -1.190861E+00  0.000000E+00
  9.141860E-06 -1.484063E-04  5.000000E-01  1.085319E-05 -1.111623E-04  0.000000E+00 -4.976276E-02  1.967991E-01 -7.056760E-13 -4.687310E-01  0.000000E+00