 Title = "ADflow Slice Data"
Variables =  "CoordinateX"  "CoordinateY"  "CoordinateZ"  "XoC"  "YoC"  "ZoC" "VelocityX" "VelocityY" "VelocityZ" "CoefPressure" "Mach" 
Zone T= "Slice_0001 None Absolute Regular z = 0.50000000"
 Nodes =          192  Elements=          184  ZONETYPE=FELINESEG
 DATAPACKING=POINT
  5.667600E-01 -1.360826E-02  5.000000E-01  5.724853E-01 -1.371882E-02  0.000000E+00  1.326339E-02  1.419995E-03  9.263272E-19  1.206905E-01  0.000000E+00
  5.873410E-01 -1.140106E-02  5.000000E-01  5.932741E-01 -1.148933E-02  0.000000E+00  1.291540E-02  1.380552E-03  1.071941E-18  1.382106E-01  0.000000E+00
  6.076580E-01 -9.236817E-03  5.000000E-01  6.137963E-01 -9.303232E-03  0.000000E+00  1.259228E-02  1.330903E-03  5.420225E-20  1.554295E-01  0.000000E+00
  6.276600E-01 -7.140224E-03  5.000000E-01  6.340003E-01 -7.185465E-03  0.000000E+00  1.229742E-02  1.274576E-03 -5.087678E-19  1.716079E-01  0.000000E+00
  6.472970E-01 -5.129131E-03  5.000000E-01  6.538356E-01 -5.154062E-03  0.000000E+00  1.202641E-02  1.216281E-03  5.920400E-19  1.863702E-01  0.000000E+00
  6.665260E-01 -3.210124E-03  5.000000E-01  6.732588E-01 -3.215675E-03  0.000000E+00  1.177338E-02  1.158314E-03 -1.092723E-18  1.999677E-01  0.000000E+00
  6.853050E-01 -1.389299E-03  5.000000E-01  6.922274E-01 -1.376463E-03  0.000000E+00  1.153626E-02  1.097656E-03 -1.741930E-18  2.132187E-01  0.000000E+00
  7.035980E-01  3.179689E-04  5.000000E-01  7.107052E-01  3.480472E-04  0.000000E+00  1.130833E-02  1.031363E-03  6.941911E-19  2.264214E-01  0.000000E+00
  7.213750E-01  1.900455E-03  5.000000E-01  7.286617E-01  1.946514E-03  0.000000E+00  1.106924E-02  9.598790E-04  5.512081E-19  2.391539E-01  0.000000E+00
  7.386080E-01  3.353711E-03  5.000000E-01  7.460687E-01  3.414447E-03  0.000000E+00  1.079165E-02  8.854815E-04 -1.858751E-18  2.512583E-01  0.000000E+00
  7.552750E-01  4.682042E-03  5.000000E-01  7.629041E-01  4.756192E-03  0.000000E+00  1.045896E-02  8.125865E-04 -1.893462E-18  2.631060E-01  0.000000E+00
  7.713580E-01  5.897133E-03  5.000000E-01  7.791495E-01  5.983555E-03  0.000000E+00  1.008613E-02  7.430254E-04  3.976803E-20  2.752134E-01  0.000000E+00
  7.868410E-01  7.008635E-03  5.000000E-01  7.947888E-01  7.106281E-03  0.000000E+00  9.743851E-03  6.587548E-04 -4.126196E-19  2.892849E-01  0.000000E+00
  8.017160E-01  7.954650E-03  5.000000E-01  8.098141E-01  8.061851E-03  0.000000E+00  9.537727E-03  5.361330E-04 -2.338658E-18  3.056064E-01  0.000000E+00
  8.159740E-01  8.649309E-03  5.000000E-01  8.242160E-01  8.763525E-03  0.000000E+00  9.534023E-03  3.812088E-04 -8.478556E-19  3.190507E-01  0.000000E+00
  8.296120E-01  9.072742E-03  5.000000E-01  8.379918E-01  9.191234E-03  0.000000E+00  9.736929E-03  2.127345E-04  1.020083E-18  3.245898E-01  0.000000E+00
  8.426300E-01  9.239451E-03  5.000000E-01  8.511412E-01  9.359626E-03  0.000000E+00  1.012253E-02  3.809668E-05  1.049593E-18  3.221192E-01  0.000000E+00
  8.550290E-01  9.179502E-03  5.000000E-01  8.636655E-01  9.299072E-03  0.000000E+00  1.066185E-02 -1.414783E-04  1.521760E-18  3.136536E-01  0.000000E+00
  8.668160E-01  8.929683E-03  5.000000E-01  8.755715E-01  9.046730E-03  0.000000E+00  1.132529E-02 -3.247649E-04  1.265787E-18  3.005846E-01  0.000000E+00
  8.779950E-01  8.530584E-03  5.000000E-01  8.868634E-01  8.643601E-03  0.000000E+00  1.208244E-02 -5.092023E-04  4.904591E-19  2.834947E-01  0.000000E+00
  8.885730E-01  8.020999E-03  5.000000E-01  8.975482E-01  8.128869E-03  0.000000E+00  1.290350E-02 -6.922588E-04  4.817880E-19  2.629768E-01  0.000000E+00
  8.985610E-01  7.433951E-03  5.000000E-01  9.076371E-01  7.535892E-03  0.000000E+00  1.375540E-02 -8.672000E-04  1.343833E-18  2.395539E-01  0.000000E+00
  9.079670E-01  6.802965E-03  5.000000E-01  9.171381E-01  6.898534E-03  0.000000E+00  1.459836E-02 -1.021633E-03  1.683511E-18  2.136946E-01  0.000000E+00
  9.168010E-01  6.160368E-03  5.000000E-01  9.260613E-01  6.249448E-03  0.000000E+00  1.539442E-02 -1.146433E-03  2.592020E-18  1.864673E-01  0.000000E+00
  9.168010E-01  6.160368E-03  5.000000E-01  9.260613E-01  6.249448E-03  0.000000E+00  1.539442E-02 -1.146433E-03  2.592020E-18  1.864673E-01  0.000000E+00
  9.250730E-01  5.530831E-03  5.000000E-01  9.344168E-01  5.613553E-03  0.000000E+00  1.612021E-02 -1.242915E-03  3.177648E-18  1.594082E-01  0.000000E+00
  9.327940E-01  4.928497E-03  5.000000E-01  9.422158E-01  5.005137E-03  0.000000E+00  1.677526E-02 -1.322891E-03  2.595476E-18  1.338376E-01  0.000000E+00
  9.399760E-01  4.356573E-03  5.000000E-01  9.494703E-01  4.427437E-03  0.000000E+00  1.737593E-02 -1.397975E-03  1.750503E-18  1.100233E-01  0.000000E+00
  9.466320E-01  3.815710E-03  5.000000E-01  9.561935E-01  3.881111E-03  0.000000E+00  1.794250E-02 -1.472717E-03  1.173994E-18  8.722099E-02  0.000000E+00
  9.527730E-01  3.306691E-03  5.000000E-01  9.623966E-01  3.366952E-03  0.000000E+00  1.849976E-02 -1.553626E-03  8.753298E-19  6.488541E-02  0.000000E+00
  9.584110E-01  2.827349E-03  5.000000E-01  9.680915E-01  2.882769E-03  0.000000E+00  1.908054E-02 -1.651367E-03 -2.453113E-19  4.278015E-02  0.000000E+00
  9.635570E-01  2.374432E-03  5.000000E-01  9.732895E-01  2.425278E-03  0.000000E+00  1.971887E-02 -1.771821E-03 -1.063429E-18  2.018369E-02  0.000000E+00
  9.682220E-01  1.946856E-03  5.000000E-01  9.780016E-01  1.993385E-03  0.000000E+00  2.044695E-02 -1.915610E-03 -1.503551E-18 -3.997014E-03  0.000000E+00
  9.724140E-01  1.545892E-03  5.000000E-01  9.822359E-01  1.588371E-03  0.000000E+00  2.131291E-02 -2.090747E-03 -1.869904E-18 -3.039686E-02  0.000000E+00
  9.761430E-01  1.171456E-03  5.000000E-01  9.860026E-01  1.210154E-03  0.000000E+00  2.239906E-02 -2.314416E-03 -2.491693E-18 -5.947292E-02  0.000000E+00
  9.794160E-01  8.242773E-04  5.000000E-01  9.893086E-01  8.594688E-04  0.000000E+00  2.380777E-02 -2.600082E-03 -4.610093E-18 -9.231330E-02  0.000000E+00
  9.822400E-01  5.074317E-04  5.000000E-01  9.921611E-01  5.394234E-04  0.000000E+00  2.559072E-02 -2.950021E-03 -8.045728E-18 -1.303808E-01  0.000000E+00
  9.846200E-01  2.260655E-04  5.000000E-01  9.945652E-01  2.552157E-04  0.000000E+00  2.761815E-02 -3.351210E-03 -1.104229E-17 -1.740375E-01  0.000000E+00
  9.865620E-01 -1.453624E-05  5.000000E-01  9.965268E-01  1.218416E-05  0.000000E+00  2.944548E-02 -3.716178E-03 -1.219600E-17 -2.213952E-01  0.000000E+00
  9.880680E-01 -2.086063E-04  5.000000E-01  9.980480E-01 -1.838458E-04  0.000000E+00  2.992701E-02 -3.833361E-03 -1.518283E-17 -2.786843E-01  0.000000E+00
  9.891420E-01 -3.514242E-04  5.000000E-01  9.991328E-01 -3.281060E-04  0.000000E+00  2.820071E-02 -3.920763E-03 -5.026132E-17 -3.457324E-01  0.000000E+00
  9.897860E-01 -4.389489E-04  5.000000E-01  9.997834E-01 -4.165146E-04  0.000000E+00  3.798770E-02 -4.024413E-03 -1.787104E-16 -2.920141E-01  0.000000E+00
  9.900000E-01 -4.683024E-04  5.000000E-01  9.999995E-01 -4.461646E-04  0.000000E+00  2.625419E-02  5.265007E-03  2.362649E-17 -5.848830E-01  0.000000E+00
  9.900000E-01 -1.843755E-04  5.000000E-01  9.999995E-01 -1.593703E-04  0.000000E+00  1.234945E-03 -7.895662E-03  1.384295E-15 -8.117606E-01  0.000000E+00
  9.900000E-01  9.955136E-05  5.000000E-01  9.999995E-01  1.274239E-04  0.000000E+00 -4.481480E-04 -2.276785E-02  2.976900E-15 -6.313203E-01  0.000000E+00
  9.900000E-01  3.834782E-04  5.000000E-01  9.999995E-01  4.142182E-04  0.000000E+00 -1.444382E-04 -8.863809E-03  3.605235E-15 -6.311841E-01  0.000000E+00
  9.900000E-01  6.674051E-04  5.000000E-01  9.999995E-01  7.010124E-04  0.000000E+00  4.658509E-04 -5.230175E-03  3.481534E-15 -6.911269E-01  0.000000E+00
  9.900000E-01  9.513320E-04  5.000000E-01  9.999995E-01  9.878066E-04  0.000000E+00  6.818176E-03 -6.645270E-03  3.204977E-15 -6.328456E-01  0.000000E+00
  9.900000E-01  9.513320E-04  5.000000E-01  9.999995E-01  9.878066E-04  0.000000E+00  6.818176E-03 -6.645270E-03  3.204977E-15 -6.328456E-01  0.000000E+00
  9.897890E-01  1.017904E-03  5.000000E-01  9.997864E-01  1.055051E-03  0.000000E+00  9.046699E-03 -3.480584E-03  2.700094E-15 -5.551958E-01  0.000000E+00
  9.891540E-01  1.218674E-03  5.000000E-01  9.991450E-01  1.257848E-03  0.000000E+00  4.588369E-03 -1.357624E-03  1.782048E-15 -5.737747E-01  0.000000E+00
  9.880950E-01  1.555407E-03  5.000000E-01  9.980753E-01  1.597983E-03  0.000000E+00  3.041060E-03 -9.661375E-04  9.879814E-16 -5.732982E-01  0.000000E+00
  9.866100E-01  2.031333E-03  5.000000E-01  9.965753E-01  2.078714E-03  0.000000E+00  1.996670E-03 -6.539561E-04  4.800013E-16 -5.653710E-01  0.000000E+00
  9.846960E-01  2.650663E-03  5.000000E-01  9.946419E-01  2.704299E-03  0.000000E+00  1.005672E-03 -3.266318E-04  2.075814E-16 -5.617088E-01  0.000000E+00
  9.823490E-01  3.418254E-03  5.000000E-01  9.922712E-01  3.479642E-03  0.000000E+00  1.913710E-04 -6.128134E-05  7.353744E-17 -5.607056E-01  0.000000E+00
  9.795670E-01  4.338756E-03  5.000000E-01  9.894612E-01  4.409440E-03  0.000000E+00 -4.255947E-04  1.419919E-04  1.027283E-17 -5.609300E-01  0.000000E+00
  9.763420E-01  5.417952E-03  5.000000E-01  9.862036E-01  5.499534E-03  0.000000E+00 -8.745725E-04  2.942941E-04 -1.316226E-17 -5.623697E-01  0.000000E+00
  9.726710E-01  6.659579E-03  5.000000E-01  9.824955E-01  6.753700E-03  0.000000E+00 -1.179794E-03  4.008271E-04 -1.533433E-17 -5.649171E-01  0.000000E+00
  9.685460E-01  8.066821E-03  5.000000E-01  9.783289E-01  8.175155E-03  0.000000E+00 -1.358106E-03  4.649243E-04 -9.481344E-18 -5.681575E-01  0.000000E+00
  9.639600E-01  9.641832E-03  5.000000E-01  9.736965E-01  9.766071E-03  0.000000E+00 -1.425418E-03  4.908956E-04 -3.350373E-18 -5.715851E-01  0.000000E+00
  9.589060E-01  1.138677E-02  5.000000E-01  9.685915E-01  1.152863E-02  0.000000E+00 -1.401265E-03  4.846955E-04 -1.439992E-18 -5.747209E-01  0.000000E+00
  9.533750E-01  1.330284E-02  5.000000E-01  9.630046E-01  1.346405E-02  0.000000E+00 -1.310672E-03  4.543407E-04 -3.429345E-19 -5.771913E-01  0.000000E+00
  9.473580E-01  1.538881E-02  5.000000E-01  9.569269E-01  1.557109E-02  0.000000E+00 -1.182855E-03  4.097493E-04  1.166379E-18 -5.787949E-01  0.000000E+00
  9.408450E-01  1.764141E-02  5.000000E-01  9.503481E-01  1.784643E-02  0.000000E+00 -1.047730E-03  3.615096E-04  9.178313E-19 -5.795424E-01  0.000000E+00
  9.338260E-01  2.005539E-02  5.000000E-01  9.432582E-01  2.028479E-02  0.000000E+00 -9.319790E-04  3.191252E-04  5.752564E-19 -5.796483E-01  0.000000E+00
  9.262910E-01  2.262238E-02  5.000000E-01  9.356471E-01  2.287771E-02  0.000000E+00 -8.563118E-04  2.897111E-04 -5.228326E-19 -5.794589E-01  0.000000E+00
  9.182290E-01  2.532969E-02  5.000000E-01  9.275037E-01  2.561236E-02  0.000000E+00 -8.348442E-04  2.775012E-04 -1.370381E-18 -5.793433E-01  0.000000E+00
  9.096280E-01  2.815975E-02  5.000000E-01  9.188158E-01  2.847100E-02  0.000000E+00 -8.756484E-04  2.839517E-04 -7.436462E-19 -5.796598E-01  0.000000E+00
  9.004770E-01  3.108932E-02  5.000000E-01  9.095724E-01  3.143016E-02  0.000000E+00 -9.812067E-04  3.080050E-04 -6.902899E-19 -5.807370E-01  0.000000E+00
  8.907650E-01  3.408778E-02  5.000000E-01  8.997623E-01  3.445889E-02  0.000000E+00 -1.149663E-03  3.459183E-04  7.121602E-20 -5.826933E-01  0.000000E+00
  8.804800E-01  3.711418E-02  5.000000E-01  8.893735E-01  3.751586E-02  0.000000E+00 -1.375969E-03  3.907981E-04  6.909017E-19 -5.854151E-01  0.000000E+00
  8.696090E-01  4.011339E-02  5.000000E-01  8.783927E-01  4.054536E-02  0.000000E+00 -1.648739E-03  4.335338E-04  6.581810E-19 -5.888590E-01  0.000000E+00
  8.696090E-01  4.011339E-02  5.000000E-01  8.783927E-01  4.054536E-02  0.000000E+00 -1.648739E-03  4.335338E-04  6.581810E-19 -5.888590E-01  0.000000E+00
  8.581400E-01  4.301425E-02  5.000000E-01  8.668079E-01  4.347552E-02  0.000000E+00 -1.948725E-03  4.650477E-04  1.705872E-18 -5.924407E-01  0.000000E+00
  8.460600E-01  4.573387E-02  5.000000E-01  8.546059E-01  4.622259E-02  0.000000E+00 -2.256564E-03  4.765863E-04  2.129030E-18 -5.941595E-01  0.000000E+00
  8.333640E-01  4.819417E-02  5.000000E-01  8.417817E-01  4.870775E-02  0.000000E+00 -2.532420E-03  4.515056E-04  1.064760E-18 -5.949917E-01  0.000000E+00
  8.200460E-01  5.032216E-02  5.000000E-01  8.283292E-01  5.085722E-02  0.000000E+00 -2.604859E-03  3.635474E-04  2.230437E-19 -6.095676E-01  0.000000E+00
  8.061050E-01  5.205393E-02  5.000000E-01  8.142474E-01  5.260648E-02  0.000000E+00 -1.997475E-03  2.024098E-04 -4.466424E-19 -6.665963E-01  0.000000E+00
  7.915460E-01  5.336847E-02  5.000000E-01  7.995413E-01  5.393430E-02  0.000000E+00  1.092311E-04 -1.048458E-06  7.312636E-19 -7.813404E-01  0.000000E+00
  7.763770E-01  5.431080E-02  5.000000E-01  7.842192E-01  5.488614E-02  0.000000E+00  4.495696E-03 -1.881938E-04  8.173767E-19 -9.252439E-01  0.000000E+00
  7.606070E-01  5.495509E-02  5.000000E-01  7.682899E-01  5.553694E-02  0.000000E+00  1.086938E-02 -2.771541E-04 -2.187069E-18 -1.040100E+00  0.000000E+00
  7.442510E-01  5.530951E-02  5.000000E-01  7.517687E-01  5.589495E-02  0.000000E+00  1.716193E-02 -1.881654E-04 -5.624827E-18 -1.090760E+00  0.000000E+00
  7.273250E-01  5.538999E-02  5.000000E-01  7.346718E-01  5.597624E-02  0.000000E+00  2.102028E-02  4.236152E-05 -8.958362E-18 -1.089569E+00  0.000000E+00
  7.098490E-01  5.524344E-02  5.000000E-01  7.170193E-01  5.582820E-02  0.000000E+00  2.194081E-02  2.582470E-04 -1.107174E-17 -1.070397E+00  0.000000E+00
  6.918480E-01  5.495558E-02  5.000000E-01  6.988365E-01  5.553744E-02  0.000000E+00  2.112861E-02  3.288635E-04 -1.110018E-17 -1.059978E+00  0.000000E+00
  6.733520E-01  5.466087E-02  5.000000E-01  6.801537E-01  5.523975E-02  0.000000E+00  1.998783E-02  2.194629E-04 -9.642096E-18 -1.070541E+00  0.000000E+00
  6.543930E-01  5.453873E-02  5.000000E-01  6.610033E-01  5.511637E-02  0.000000E+00  1.935667E-02 -1.501700E-05 -7.722479E-18 -1.099860E+00  0.000000E+00
  6.350090E-01  5.469625E-02  5.000000E-01  6.414235E-01  5.527549E-02  0.000000E+00  1.953575E-02 -2.621310E-04 -6.033259E-18 -1.134380E+00  0.000000E+00
  6.152440E-01  5.507091E-02  5.000000E-01  6.214589E-01  5.565393E-02  0.000000E+00  2.035558E-02 -4.399621E-04 -6.626164E-18 -1.161114E+00  0.000000E+00
  5.951420E-01  5.556087E-02  5.000000E-01  6.011539E-01  5.614884E-02  0.000000E+00  2.139262E-02 -5.128976E-04 -7.759877E-18 -1.173809E+00  0.000000E+00
  5.747530E-01  5.604585E-02  5.000000E-01  5.805590E-01  5.663872E-02  0.000000E+00  2.229962E-02 -4.485243E-04 -8.869835E-18 -1.170151E+00  0.000000E+00
  5.541290E-01  5.639292E-02  5.000000E-01  5.597267E-01  5.698929E-02  0.000000E+00  2.291085E-02 -2.348779E-04 -1.032909E-17 -1.151035E+00  0.000000E+00
  5.333260E-01  5.647372E-02  5.000000E-01  5.387136E-01  5.707091E-02  0.000000E+00  2.315986E-02  7.208642E-05 -1.008261E-17 -1.122031E+00  0.000000E+00
  5.124010E-01  5.625894E-02  5.000000E-01  5.175773E-01  5.685396E-02  0.000000E+00  2.307239E-02  3.868473E-04 -8.214750E-18 -1.090349E+00  0.000000E+00
  4.914140E-01  5.576671E-02  5.000000E-01  4.963784E-01  5.635676E-02  0.000000E+00  2.278148E-02  6.707368E-04 -6.476079E-18 -1.060005E+00  0.000000E+00
  4.704230E-01  5.502051E-02  5.000000E-01  4.751754E-01  5.560302E-02  0.000000E+00  2.242027E-02  9.179683E-04 -3.725833E-18 -1.032662E+00  0.000000E+00
  1.696960E-04 -4.669012E-04  5.000000E-01  1.730287E-04 -4.447492E-04  0.000000E+00 -6.433872E-02  9.210689E-02 -3.385013E-14  5.597385E-01  0.000000E+00
  8.054360E-04 -9.558803E-04  5.000000E-01  8.151890E-04 -9.386664E-04  0.000000E+00 -4.649977E-02  3.199604E-02 -2.636388E-14  1.117654E+00  0.000000E+00
  1.973980E-03 -1.547330E-03  5.000000E-01  1.995534E-03 -1.536089E-03  0.000000E+00 -2.042398E-02  9.904823E-03 -1.448565E-14  1.178227E+00  0.000000E+00
  3.614630E-03 -2.239372E-03  5.000000E-01  3.652753E-03 -2.235120E-03  0.000000E+00 -3.442364E-03  1.470873E-03 -4.925410E-15  1.149169E+00  0.000000E+00
  5.721210E-03 -3.039862E-03  5.000000E-01  5.780607E-03 -3.043694E-03  0.000000E+00  5.554525E-03 -1.984825E-03  1.535383E-17  1.115651E+00  0.000000E+00
  8.297500E-03 -3.945657E-03  5.000000E-01  8.382914E-03 -3.958637E-03  0.000000E+00  9.790165E-03 -3.280746E-03  1.292528E-15  1.069046E+00  0.000000E+00
  1.136560E-02 -4.936416E-03  5.000000E-01  1.148200E-02 -4.959401E-03  0.000000E+00  1.149903E-02 -3.568614E-03  9.395187E-16  1.012983E+00  0.000000E+00
  1.493280E-02 -6.000477E-03  5.000000E-01  1.508522E-02 -6.034208E-03  0.000000E+00  1.205088E-02 -3.498275E-03  3.519593E-16  9.575327E-01  0.000000E+00
  1.899460E-02 -7.145898E-03  5.000000E-01  1.918804E-02 -7.191197E-03  0.000000E+00  1.227929E-02 -3.406472E-03  2.237615E-17  9.064952E-01  0.000000E+00
  2.354800E-02 -8.388447E-03  5.000000E-01  2.378743E-02 -8.446294E-03  0.000000E+00  1.259564E-02 -3.380344E-03 -6.378790E-17  8.566510E-01  0.000000E+00
  2.860130E-02 -9.723456E-03  5.000000E-01  2.889176E-02 -9.794785E-03  0.000000E+00  1.310921E-02 -3.399060E-03 -4.491946E-17  8.052598E-01  0.000000E+00
  3.416500E-02 -1.113984E-02  5.000000E-01  3.451165E-02 -1.122548E-02  0.000000E+00  1.379405E-02 -3.442399E-03 -1.577338E-17  7.535902E-01  0.000000E+00
  4.024810E-02 -1.262857E-02  5.000000E-01  4.065618E-02 -1.272924E-02  0.000000E+00  1.458747E-02 -3.491644E-03 -1.361428E-18  7.026001E-01  0.000000E+00
  4.686030E-02 -1.417768E-02  5.000000E-01  4.733516E-02 -1.429399E-02  0.000000E+00  1.542404E-02 -3.528470E-03  3.604113E-18  6.520920E-01  0.000000E+00
  5.401090E-02 -1.577592E-02  5.000000E-01  5.455797E-02 -1.590838E-02  0.000000E+00  1.625799E-02 -3.546187E-03  3.669321E-18  6.021479E-01  0.000000E+00
  6.170850E-02 -1.741528E-02  5.000000E-01  6.233331E-02 -1.756429E-02  0.000000E+00  1.706492E-02 -3.537865E-03  2.467104E-18  5.524242E-01  0.000000E+00
  6.996310E-02 -1.908225E-02  5.000000E-01  7.067127E-02 -1.924809E-02  0.000000E+00  1.783129E-02 -3.492155E-03  1.534168E-18  5.022738E-01  0.000000E+00
  7.878500E-02 -2.075835E-02  5.000000E-01  7.958226E-02 -2.094111E-02  0.000000E+00  1.855320E-02 -3.406333E-03  1.983410E-19  4.519665E-01  0.000000E+00
  8.818390E-02 -2.242590E-02  5.000000E-01  8.907608E-02 -2.262551E-02  0.000000E+00  1.923021E-02 -3.281328E-03 -5.777094E-19  4.020230E-01  0.000000E+00
  9.816930E-02 -2.406429E-02  5.000000E-01  9.916232E-02 -2.428045E-02  0.000000E+00  1.985390E-02 -3.113715E-03  1.146393E-18  3.526083E-01  0.000000E+00
  1.087500E-01 -2.564927E-02  5.000000E-01  1.098499E-01 -2.588143E-02  0.000000E+00  2.040462E-02 -2.901778E-03  1.513267E-18  3.042510E-01  0.000000E+00
  1.199340E-01 -2.715697E-02  5.000000E-01  1.211468E-01 -2.740436E-02  0.000000E+00  2.084552E-02 -2.643360E-03  1.432319E-18  2.577448E-01  0.000000E+00
  1.317280E-01 -2.856008E-02  5.000000E-01  1.330599E-01 -2.882164E-02  0.000000E+00  2.111949E-02 -2.334078E-03  3.515777E-18  2.139660E-01  0.000000E+00
  1.441380E-01 -2.982779E-02  5.000000E-01  1.455953E-01 -3.010215E-02  0.000000E+00  2.116915E-02 -1.979142E-03  2.466629E-18  1.745618E-01  0.000000E+00
  1.441380E-01 -2.982779E-02  5.000000E-01  1.455953E-01 -3.010215E-02  0.000000E+00  2.116915E-02 -1.979142E-03  2.466629E-18  1.745618E-01  0.000000E+00
  1.571670E-01 -3.093259E-02  5.000000E-01  1.587558E-01 -3.121811E-02  0.000000E+00  2.097073E-02 -1.596826E-03  7.577412E-19  1.416825E-01  0.000000E+00
  1.708170E-01 -3.185177E-02  5.000000E-01  1.725437E-01 -3.214657E-02  0.000000E+00  2.057254E-02 -1.218545E-03  3.490612E-19  1.172043E-01  0.000000E+00
  1.850860E-01 -3.257777E-02  5.000000E-01  1.869568E-01 -3.287990E-02  0.000000E+00  2.011926E-02 -8.943239E-04 -2.133640E-19  1.021267E-01  0.000000E+00
  1.999720E-01 -3.313936E-02  5.000000E-01  2.019931E-01 -3.344716E-02  0.000000E+00  1.982369E-02 -6.861454E-04 -7.660847E-19  9.553515E-02  0.000000E+00
  2.154670E-01 -3.362445E-02  5.000000E-01  2.176446E-01 -3.393716E-02  0.000000E+00  1.984789E-02 -6.122249E-04 -1.437640E-18  9.135143E-02  0.000000E+00
  2.315610E-01 -3.411612E-02  5.000000E-01  2.339011E-01 -3.443379E-02  0.000000E+00  2.018515E-02 -5.977529E-04  3.484639E-20  7.808356E-02  0.000000E+00
  2.482400E-01 -3.459933E-02  5.000000E-01  2.507486E-01 -3.492188E-02  0.000000E+00  2.072375E-02 -5.579608E-04  1.074906E-18  4.982302E-02  0.000000E+00
  2.654840E-01 -3.503062E-02  5.000000E-01  2.681667E-01 -3.535752E-02  0.000000E+00  2.132942E-02 -4.537074E-04 -1.267987E-19  1.014182E-02  0.000000E+00
  2.832720E-01 -3.534442E-02  5.000000E-01  2.861343E-01 -3.567450E-02  0.000000E+00  2.182402E-02 -2.583001E-04 -1.615657E-19 -3.478302E-02  0.000000E+00
  3.015770E-01 -3.545696E-02  5.000000E-01  3.046242E-01 -3.578817E-02  0.000000E+00  2.199509E-02  4.223816E-05  7.867530E-19 -7.857832E-02  0.000000E+00
  3.203660E-01 -3.527025E-02  5.000000E-01  3.236030E-01 -3.559957E-02  0.000000E+00  2.166784E-02  4.350862E-04  1.477482E-18 -1.144491E-01  0.000000E+00
  3.396030E-01 -3.468243E-02  5.000000E-01  3.430342E-01 -3.500582E-02  0.000000E+00  2.083322E-02  8.480540E-04  1.274277E-18 -1.335172E-01  0.000000E+00
  3.592490E-01 -3.366725E-02  5.000000E-01  3.628786E-01 -3.398038E-02  0.000000E+00  1.967550E-02  1.182924E-03  4.860038E-19 -1.287379E-01  0.000000E+00
  3.792580E-01 -3.227942E-02  5.000000E-01  3.830897E-01 -3.257854E-02  0.000000E+00  1.843114E-02  1.401549E-03  2.095650E-19 -1.026039E-01  0.000000E+00
  3.995810E-01 -3.058895E-02  5.000000E-01  4.036179E-01 -3.087100E-02  0.000000E+00  1.728271E-02  1.519281E-03 -1.497739E-19 -6.487899E-02  0.000000E+00
  4.201670E-01 -2.867813E-02  5.000000E-01  4.244118E-01 -2.894088E-02  0.000000E+00  1.634220E-02  1.560030E-03 -2.957603E-19 -2.520297E-02  0.000000E+00
  4.409600E-01 -2.663774E-02  5.000000E-01  4.454148E-01 -2.687989E-02  0.000000E+00  1.563990E-02  1.550162E-03 -3.989158E-19  9.899075E-03  0.000000E+00
  4.619030E-01 -2.454382E-02  5.000000E-01  4.665693E-01 -2.476482E-02  0.000000E+00  1.512306E-02  1.523847E-03  1.787585E-19  3.678446E-02  0.000000E+00
  4.829360E-01 -2.241046E-02  5.000000E-01  4.878147E-01 -2.260991E-02  0.000000E+00  1.470935E-02  1.503044E-03  1.241663E-18  5.605204E-02  0.000000E+00
  5.039990E-01 -2.024139E-02  5.000000E-01  5.090904E-01 -2.041894E-02  0.000000E+00  1.434076E-02  1.486599E-03  1.371786E-18  7.182428E-02  0.000000E+00
  5.250310E-01 -1.804477E-02  5.000000E-01  5.303348E-01 -1.820013E-02  0.000000E+00  1.398428E-02  1.469296E-03  7.033073E-19  8.735560E-02  0.000000E+00
  5.459710E-01 -1.583053E-02  5.000000E-01  5.514863E-01 -1.596353E-02  0.000000E+00  1.362439E-02  1.448384E-03  6.280941E-19  1.036391E-01  0.000000E+00
  5.667600E-01 -1.360826E-02  5.000000E-01  5.724853E-01 -1.371882E-02  0.000000E+00  1.326339E-02  1.419995E-03  9.263272E-19  1.206905E-01  0.000000E+00
  4.704230E-01  5.502051E-02  5.000000E-01  4.751754E-01  5.560302E-02  0.000000E+00  2.242027E-02  9.179683E-04 -3.725833E-18 -1.032662E+00  0.000000E+00
  4.494880E-01  5.404921E-02  5.000000E-01  4.540289E-01  5.462192E-02  0.000000E+00  2.206501E-02  1.127523E-03 -8.359088E-19 -1.009496E+00  0.000000E+00
  4.286690E-01  5.288640E-02  5.000000E-01  4.329997E-01  5.344737E-02  0.000000E+00  2.174267E-02  1.289662E-03  3.125086E-19 -9.923934E-01  0.000000E+00
  4.080230E-01  5.158826E-02  5.000000E-01  4.121452E-01  5.213611E-02  0.000000E+00  2.147004E-02  1.389187E-03  6.410664E-19 -9.838180E-01  0.000000E+00
  3.876050E-01  5.022790E-02  5.000000E-01  3.915210E-01  5.076202E-02  0.000000E+00  2.129100E-02  1.422824E-03  1.547412E-19 -9.853438E-01  0.000000E+00
  3.674690E-01  4.887653E-02  5.000000E-01  3.711816E-01  4.939699E-02  0.000000E+00  2.126076E-02  1.396195E-03 -2.070391E-18 -9.972459E-01  0.000000E+00
  3.476650E-01  4.760109E-02  5.000000E-01  3.511776E-01  4.810868E-02  0.000000E+00  2.141850E-02  1.314927E-03 -6.296380E-18 -1.018363E+00  0.000000E+00
  3.282390E-01  4.646170E-02  5.000000E-01  3.315555E-01  4.695777E-02  0.000000E+00  2.179899E-02  1.204936E-03 -1.130629E-17 -1.044273E+00  0.000000E+00
  3.092330E-01  4.547536E-02  5.000000E-01  3.123575E-01  4.596147E-02  0.000000E+00  2.243543E-02  1.144923E-03 -1.608614E-17 -1.065979E+00  0.000000E+00
  2.906860E-01  4.455011E-02  5.000000E-01  2.936232E-01  4.502688E-02  0.000000E+00  2.324135E-02  1.202040E-03 -2.012652E-17 -1.075925E+00  0.000000E+00
  2.726330E-01  4.358750E-02  5.000000E-01  2.753879E-01  4.405455E-02  0.000000E+00  2.400051E-02  1.376826E-03 -2.104764E-17 -1.072637E+00  0.000000E+00
  2.551020E-01  4.251370E-02  5.000000E-01  2.576799E-01  4.296991E-02  0.000000E+00  2.453721E-02  1.642462E-03 -1.944761E-17 -1.057971E+00  0.000000E+00
  2.381210E-01  4.128243E-02  5.000000E-01  2.405274E-01  4.172621E-02  0.000000E+00  2.479911E-02  1.969741E-03 -1.686342E-17 -1.034839E+00  0.000000E+00
  2.217090E-01  3.986771E-02  5.000000E-01  2.239496E-01  4.029720E-02  0.000000E+00  2.482240E-02  2.329619E-03 -1.302592E-17 -1.006851E+00  0.000000E+00
  2.058840E-01  3.826221E-02  5.000000E-01  2.079648E-01  3.867549E-02  0.000000E+00  2.464448E-02  2.663540E-03 -8.894025E-18 -9.801851E-01  0.000000E+00
  1.906600E-01  3.651119E-02  5.000000E-01  1.925871E-01  3.690678E-02  0.000000E+00  2.430599E-02  2.892585E-03 -6.477630E-18 -9.627393E-01  0.000000E+00
  1.760460E-01  3.470839E-02  5.000000E-01  1.778255E-01  3.508577E-02  0.000000E+00  2.395070E-02  3.013674E-03 -5.477002E-18 -9.574813E-01  0.000000E+00
  1.620500E-01  3.291148E-02  5.000000E-01  1.636881E-01  3.327072E-02  0.000000E+00  2.376192E-02  3.095603E-03 -4.048438E-18 -9.613092E-01  0.000000E+00
  1.486750E-01  3.114443E-02  5.000000E-01  1.501781E-01  3.148582E-02  0.000000E+00  2.381372E-02  3.191124E-03 -1.298983E-18 -9.699542E-01  0.000000E+00
  1.359210E-01  2.941232E-02  5.000000E-01  1.372953E-01  2.973622E-02  0.000000E+00  2.406079E-02  3.318923E-03  3.657282E-18 -9.802396E-01  0.000000E+00
  1.237890E-01  2.771396E-02  5.000000E-01  1.250407E-01  2.802071E-02  0.000000E+00  2.440489E-02  3.478759E-03  1.096068E-17 -9.904032E-01  0.000000E+00
  1.122730E-01  2.604383E-02  5.000000E-01  1.134085E-01  2.633371E-02  0.000000E+00  2.475894E-02  3.664599E-03  2.210857E-17 -9.998073E-01  0.000000E+00
  1.013710E-01  2.439810E-02  5.000000E-01  1.023964E-01  2.467136E-02  0.000000E+00  2.507395E-02  3.869139E-03  3.545867E-17 -1.008617E+00  0.000000E+00
  9.107400E-02  2.277510E-02  5.000000E-01  9.199536E-02  2.303197E-02  0.000000E+00  2.534072E-02  4.091871E-03  4.814146E-17 -1.017146E+00  0.000000E+00
  9.107400E-02  2.277510E-02  5.000000E-01  9.199536E-02  2.303197E-02  0.000000E+00  2.534072E-02  4.091871E-03  4.814146E-17 -1.017146E+00  0.000000E+00
  8.137660E-02  2.117225E-02  5.000000E-01  8.220003E-02  2.141293E-02  0.000000E+00  2.556442E-02  4.332336E-03  5.367240E-17 -1.025985E+00  0.000000E+00
  7.227050E-02  1.959103E-02  5.000000E-01  7.300197E-02  1.981574E-02  0.000000E+00  2.575115E-02  4.586131E-03  3.255603E-17 -1.036050E+00  0.000000E+00
  6.374670E-02  1.803533E-02  5.000000E-01  6.439209E-02  1.824433E-02  0.000000E+00  2.591367E-02  4.855774E-03 -6.315159E-17 -1.047945E+00  0.000000E+00
  5.579720E-02  1.650716E-02  5.000000E-01  5.636231E-02  1.670073E-02  0.000000E+00  2.605424E-02  5.138594E-03 -3.290827E-16 -1.062523E+00  0.000000E+00
  4.841260E-02  1.501365E-02  5.000000E-01  4.890313E-02  1.519213E-02  0.000000E+00  2.617210E-02  5.430324E-03 -9.424646E-16 -1.080730E+00  0.000000E+00
  4.158390E-02  1.356123E-02  5.000000E-01  4.200547E-02  1.372505E-02  0.000000E+00  2.627288E-02  5.738256E-03 -2.199872E-15 -1.102920E+00  0.000000E+00
  3.530370E-02  1.215355E-02  5.000000E-01  3.566185E-02  1.230316E-02  0.000000E+00  2.633946E-02  6.058066E-03 -4.510920E-15 -1.129902E+00  0.000000E+00
  2.956270E-02  1.079892E-02  5.000000E-01  2.986287E-02  1.093485E-02  0.000000E+00  2.634930E-02  6.386623E-03 -8.267800E-15 -1.162326E+00  0.000000E+00
  2.435310E-02  9.502891E-03  5.000000E-01  2.460066E-02  9.625727E-03  0.000000E+00  2.627338E-02  6.739524E-03 -1.349320E-14 -1.199592E+00  0.000000E+00
  1.967110E-02  8.265213E-03  5.000000E-01  1.987138E-02  8.375549E-03  0.000000E+00  2.600150E-02  7.094936E-03 -1.935221E-14 -1.242024E+00  0.000000E+00
  1.550860E-02  7.092393E-03  5.000000E-01  1.566684E-02  7.190885E-03  0.000000E+00  2.539318E-02  7.417850E-03 -2.395497E-14 -1.289968E+00  0.000000E+00
  1.185930E-02  5.987696E-03  5.000000E-01  1.198068E-02  6.075032E-03  0.000000E+00  2.437690E-02  7.718297E-03 -2.492447E-14 -1.341626E+00  0.000000E+00
  8.724160E-03  4.947238E-03  5.000000E-01  8.813883E-03  5.024066E-03  0.000000E+00  2.303703E-02  8.023520E-03 -2.081114E-14 -1.396776E+00  0.000000E+00
  6.091130E-03  3.979158E-03  5.000000E-01  6.154263E-03  4.046210E-03  0.000000E+00  2.208948E-02  8.680718E-03 -1.300647E-14 -1.451271E+00  0.000000E+00
  3.952840E-03  3.086414E-03  5.000000E-01  3.994378E-03  3.144451E-03  0.000000E+00  2.285547E-02  1.070752E-02 -5.942388E-15 -1.488133E+00  0.000000E+00
  2.330070E-03  2.256950E-03  5.000000E-01  2.355220E-03  2.306609E-03  0.000000E+00  2.547900E-02  1.512428E-02 -3.447738E-15 -1.495259E+00  0.000000E+00
  1.198080E-03  1.509189E-03  5.000000E-01  1.211798E-03  1.551297E-03  0.000000E+00  2.817624E-02  2.208899E-02 -5.431495E-15 -1.481884E+00  0.000000E+00
  5.019560E-04  8.762154E-04  5.000000E-01  5.086442E-04  9.119314E-04  0.000000E+00  3.027342E-02  3.354345E-02 -9.492796E-15 -1.493044E+00  0.000000E+00
  1.313430E-04  3.892471E-04  5.000000E-01  1.342884E-04  4.200452E-04  0.000000E+00  3.414534E-02  6.852134E-02 -1.391534E-14 -1.535446E+00  0.000000E+00
  8.078190E-06  7.987634E-05  5.000000E-01  9.778777E-06  1.075502E-04  0.000000E+00  2.949794E-02  1.703105E-01 -1.935621E-14 -1.471347E+00  0.000000E+00
 -1.602820E-06 -2.659859E-05  5.000000E-01  0.000000E+00  0.000000E+00  0.000000E+00 -5.292707E-03  2.510040E-01 -2.552620E-14 -1.181716E+00  0.000000E+00
  9.141860E-06 -1.364524E-04  5.000000E-01  1.085319E-05 -1.109632E-04  0.000000E+00 -4.982281E-02  1.968066E-01 -3.190242E-14 -4.503149E-01  0.000000E+00