 Title = "ADflow Slice Data"
Variables =  "CoordinateX"  "CoordinateY"  "CoordinateZ"  "XoC"  "YoC"  "ZoC" "VelocityX" "VelocityY" "VelocityZ" "CoefPressure" "Mach" 
Zone T= "Slice_0001 None Absolute Regular z = 0.50000000"
 Nodes =          192  Elements=          184  ZONETYPE=FELINESEG
 DATAPACKING=POINT
  5.667600E-01 -1.512025E-02  5.000000E-01  5.724853E-01 -1.523421E-02  0.000000E+00  1.341154E-02  1.530128E-03  7.443374E-19  9.990963E-02  0.000000E+00
  5.873410E-01 -1.275869E-02  5.000000E-01  5.932741E-01 -1.284880E-02  0.000000E+00  1.290502E-02  1.479688E-03 -3.745784E-19  1.228917E-01  0.000000E+00
  6.076580E-01 -1.043105E-02  5.000000E-01  6.137963E-01 -1.049766E-02  0.000000E+00  1.246019E-02  1.418320E-03 -1.721644E-18  1.448424E-01  0.000000E+00
  6.276600E-01 -8.169823E-03  5.000000E-01  6.340003E-01 -8.213590E-03  0.000000E+00  1.207497E-02  1.350234E-03 -9.897366E-19  1.651672E-01  0.000000E+00
  6.472970E-01 -5.999454E-03  5.000000E-01  6.538356E-01 -6.021303E-03  0.000000E+00  1.173998E-02  1.280381E-03 -1.184522E-18  1.835032E-01  0.000000E+00
  6.665260E-01 -3.931798E-03  5.000000E-01  6.732588E-01 -3.932766E-03  0.000000E+00  1.144501E-02  1.211300E-03 -2.987198E-19  2.000584E-01  0.000000E+00
  6.853050E-01 -1.976518E-03  5.000000E-01  6.922274E-01 -1.957739E-03  0.000000E+00  1.118393E-02  1.140461E-03  1.702217E-18  2.156260E-01  0.000000E+00
  7.035980E-01 -1.507625E-04  5.000000E-01  7.107052E-01 -1.135460E-04  0.000000E+00  1.094663E-02  1.065247E-03  2.005169E-18  2.305472E-01  0.000000E+00
  7.213750E-01  1.533596E-03  5.000000E-01  7.286617E-01  1.587823E-03  0.000000E+00  1.071036E-02  9.860572E-04  1.397532E-18  2.444904E-01  0.000000E+00
  7.386080E-01  3.072343E-03  5.000000E-01  7.460687E-01  3.142109E-03  0.000000E+00  1.044612E-02  9.050029E-04  9.683724E-19  2.573823E-01  0.000000E+00
  7.552750E-01  4.470626E-03  5.000000E-01  7.629040E-01  4.554514E-03  0.000000E+00  1.013577E-02  8.263150E-04  9.831039E-19  2.696540E-01  0.000000E+00
  7.713580E-01  5.741314E-03  5.000000E-01  7.791495E-01  5.838034E-03  0.000000E+00  9.792079E-03  7.517952E-04  3.389880E-19  2.818648E-01  0.000000E+00
  7.868410E-01  6.895399E-03  5.000000E-01  7.947888E-01  7.003774E-03  0.000000E+00  9.482015E-03  6.641176E-04 -4.007086E-19  2.957390E-01  0.000000E+00
  8.017160E-01  7.872916E-03  5.000000E-01  8.098140E-01  7.991162E-03  0.000000E+00  9.306712E-03  5.403928E-04  9.584652E-20  3.116156E-01  0.000000E+00
  8.159740E-01  8.590487E-03  5.000000E-01  8.242160E-01  8.715980E-03  0.000000E+00  9.329823E-03  3.860631E-04  7.249208E-19  3.245276E-01  0.000000E+00
  8.296120E-01  9.030462E-03  5.000000E-01  8.379918E-01  9.160399E-03  0.000000E+00  9.555137E-03  2.187794E-04  3.139369E-19  3.296070E-01  0.000000E+00
  8.426300E-01  9.209093E-03  5.000000E-01  8.511412E-01  9.340834E-03  0.000000E+00  9.959247E-03  4.535454E-05  1.221219E-19  3.267964E-01  0.000000E+00
  8.550290E-01  9.157742E-03  5.000000E-01  8.636654E-01  9.288964E-03  0.000000E+00  1.051389E-02 -1.332160E-04  2.080890E-19  3.180811E-01  0.000000E+00
  8.668160E-01  8.914130E-03  5.000000E-01  8.755715E-01  9.042891E-03  0.000000E+00  1.119013E-02 -3.157901E-04  6.299507E-19  3.048108E-01  0.000000E+00
  8.779950E-01  8.519514E-03  5.000000E-01  8.868634E-01  8.644290E-03  0.000000E+00  1.195812E-02 -4.998122E-04  9.291650E-19  2.875463E-01  0.000000E+00
  8.885730E-01  8.013163E-03  5.000000E-01  8.975482E-01  8.132826E-03  0.000000E+00  1.278857E-02 -6.827059E-04  1.068563E-18  2.668760E-01  0.000000E+00
  8.985610E-01  7.428445E-03  5.000000E-01  9.076371E-01  7.542203E-03  0.000000E+00  1.364887E-02 -8.577223E-04  1.394587E-18  2.433214E-01  0.000000E+00
  9.079670E-01  6.799130E-03  5.000000E-01  9.171381E-01  6.906533E-03  0.000000E+00  1.449976E-02 -1.012492E-03  1.193106E-18  2.173441E-01  0.000000E+00
  9.168010E-01  6.157725E-03  5.000000E-01  9.260613E-01  6.258651E-03  0.000000E+00  1.530360E-02 -1.137870E-03  1.495947E-18  1.900016E-01  0.000000E+00
  9.168010E-01  6.157725E-03  5.000000E-01  9.260613E-01  6.258651E-03  0.000000E+00  1.530360E-02 -1.137870E-03  1.495947E-18  1.900016E-01  0.000000E+00
  9.250730E-01  5.529033E-03  5.000000E-01  9.344168E-01  5.623609E-03  0.000000E+00  1.603721E-02 -1.235089E-03  1.616121E-18  1.628185E-01  0.000000E+00
  9.327940E-01  4.927293E-03  5.000000E-01  9.422158E-01  5.015792E-03  0.000000E+00  1.670008E-02 -1.315850E-03  6.042881E-19  1.371082E-01  0.000000E+00
  9.399760E-01  4.355781E-03  5.000000E-01  9.494703E-01  4.438508E-03  0.000000E+00  1.730845E-02 -1.391690E-03 -6.378101E-19  1.131396E-01  0.000000E+00
  9.466320E-01  3.815200E-03  5.000000E-01  9.561935E-01  3.892468E-03  0.000000E+00  1.788247E-02 -1.467141E-03  2.047160E-18  9.017519E-02  0.000000E+00
  9.527730E-01  3.306371E-03  5.000000E-01  9.623965E-01  3.378501E-03  0.000000E+00  1.844684E-02 -1.548697E-03  1.130636E-17  6.767547E-02  0.000000E+00
  9.584110E-01  2.827154E-03  5.000000E-01  9.680915E-01  2.894445E-03  0.000000E+00  1.903424E-02 -1.647006E-03  1.485088E-17  4.540810E-02  0.000000E+00
  9.635570E-01  2.374318E-03  5.000000E-01  9.732895E-01  2.437035E-03  0.000000E+00  1.967859E-02 -1.767949E-03 -2.075022E-17  2.265539E-02  0.000000E+00
  9.682220E-01  1.946793E-03  5.000000E-01  9.780016E-01  2.005192E-03  0.000000E+00  2.041200E-02 -1.912160E-03 -1.062178E-16 -1.671311E-03  0.000000E+00
  9.724140E-01  1.545859E-03  5.000000E-01  9.822359E-01  1.600209E-03  0.000000E+00  2.128251E-02 -2.087646E-03 -1.261030E-16 -2.820267E-02  0.000000E+00
  9.761430E-01  1.171440E-03  5.000000E-01  9.860026E-01  1.222009E-03  0.000000E+00  2.237224E-02 -2.311569E-03  1.888537E-16 -5.739102E-02  0.000000E+00
  9.794160E-01  8.242704E-04  5.000000E-01  9.893086E-01  8.713337E-04  0.000000E+00  2.378321E-02 -2.597352E-03  9.117501E-16 -9.031765E-02  0.000000E+00
  9.822400E-01  5.074293E-04  5.000000E-01  9.921611E-01  5.512928E-04  0.000000E+00  2.556633E-02 -2.947187E-03  1.131279E-15 -1.284358E-01  0.000000E+00
  9.846200E-01  2.260650E-04  5.000000E-01  9.945652E-01  2.670871E-04  0.000000E+00  2.759058E-02 -3.347858E-03 -1.363395E-15 -1.720947E-01  0.000000E+00
  9.865620E-01 -1.453607E-05  5.000000E-01  9.965268E-01  2.405621E-05  0.000000E+00  2.940959E-02 -3.711579E-03 -7.852893E-15 -2.194035E-01  0.000000E+00
  9.880680E-01 -2.086060E-04  5.000000E-01  9.980480E-01 -1.719736E-04  0.000000E+00  2.987557E-02 -3.826696E-03 -1.245564E-14 -2.766125E-01  0.000000E+00
  9.891420E-01 -3.514239E-04  5.000000E-01  9.991328E-01 -3.162338E-04  0.000000E+00  2.812838E-02 -3.911133E-03  4.368951E-15 -3.434970E-01  0.000000E+00
  9.897860E-01 -4.389487E-04  5.000000E-01  9.997833E-01 -4.046425E-04  0.000000E+00  3.788610E-02 -4.013266E-03  6.200948E-14 -2.893918E-01  0.000000E+00
  9.900000E-01 -4.683023E-04  5.000000E-01  9.999995E-01 -4.342925E-04  0.000000E+00  2.618840E-02  5.267618E-03  5.907614E-14 -5.820160E-01  0.000000E+00
  9.900000E-01 -1.843754E-04  5.000000E-01  9.999995E-01 -1.474983E-04  0.000000E+00  1.229773E-03 -7.885233E-03  8.979774E-15 -8.088092E-01  0.000000E+00
  9.900000E-01  9.955150E-05  5.000000E-01  9.999995E-01  1.392959E-04  0.000000E+00 -4.468910E-04 -2.274865E-02  3.086326E-16 -6.283590E-01  0.000000E+00
  9.900000E-01  3.834784E-04  5.000000E-01  9.999995E-01  4.260901E-04  0.000000E+00 -1.435997E-04 -8.862954E-03 -7.781097E-16 -6.283151E-01  0.000000E+00
  9.900000E-01  6.674053E-04  5.000000E-01  9.999995E-01  7.128844E-04  0.000000E+00  4.646606E-04 -5.229919E-03  1.943733E-15 -6.881958E-01  0.000000E+00
  9.900000E-01  9.513321E-04  5.000000E-01  9.999995E-01  9.996786E-04  0.000000E+00  6.797368E-03 -6.632434E-03  4.853252E-15 -6.299445E-01  0.000000E+00
  9.900000E-01  9.513321E-04  5.000000E-01  9.999995E-01  9.996786E-04  0.000000E+00  6.797368E-03 -6.632434E-03  4.853252E-15 -6.299445E-01  0.000000E+00
  9.897890E-01  1.017904E-03  5.000000E-01  9.997864E-01  1.066922E-03  0.000000E+00  9.015812E-03 -3.469601E-03  4.882249E-15 -5.523840E-01  0.000000E+00
  9.891540E-01  1.218674E-03  5.000000E-01  9.991450E-01  1.269720E-03  0.000000E+00  4.567809E-03 -1.351289E-03  2.744423E-15 -5.709864E-01  0.000000E+00
  9.880950E-01  1.555408E-03  5.000000E-01  9.980753E-01  1.609855E-03  0.000000E+00  3.024820E-03 -9.609330E-04  1.021225E-15 -5.705464E-01  0.000000E+00
  9.866100E-01  2.031333E-03  5.000000E-01  9.965753E-01  2.090586E-03  0.000000E+00  1.983776E-03 -6.497855E-04  2.615956E-16 -5.626466E-01  0.000000E+00
  9.846960E-01  2.650662E-03  5.000000E-01  9.946419E-01  2.716170E-03  0.000000E+00  9.959140E-04 -3.234648E-04  8.275333E-17 -5.590087E-01  0.000000E+00
  9.823490E-01  3.418251E-03  5.000000E-01  9.922712E-01  3.491511E-03  0.000000E+00  1.849810E-04 -5.918402E-05  6.028053E-17 -5.580292E-01  0.000000E+00
  9.795670E-01  4.338749E-03  5.000000E-01  9.894611E-01  4.421304E-03  0.000000E+00 -4.278413E-04  1.427356E-04  3.004795E-17 -5.582712E-01  0.000000E+00
  9.763420E-01  5.417935E-03  5.000000E-01  9.862036E-01  5.511389E-03  0.000000E+00 -8.716155E-04  2.932926E-04 -5.160691E-18 -5.597159E-01  0.000000E+00
  9.726710E-01  6.659543E-03  5.000000E-01  9.824955E-01  6.765536E-03  0.000000E+00 -1.170649E-03  3.977113E-04 -1.990048E-17 -5.622497E-01  0.000000E+00
  9.685460E-01  8.066753E-03  5.000000E-01  9.783288E-01  8.186957E-03  0.000000E+00 -1.342225E-03  4.594750E-04 -1.497031E-17 -5.654531E-01  0.000000E+00
  9.639600E-01  9.641707E-03  5.000000E-01  9.736965E-01  9.777816E-03  0.000000E+00 -1.402979E-03  4.831493E-04 -5.059301E-18 -5.688182E-01  0.000000E+00
  9.589060E-01  1.138655E-02  5.000000E-01  9.685915E-01  1.154028E-02  0.000000E+00 -1.373326E-03  4.750050E-04  6.100637E-19 -5.718690E-01  0.000000E+00
  9.533750E-01  1.330247E-02  5.000000E-01  9.630046E-01  1.347555E-02  0.000000E+00 -1.279130E-03  4.433694E-04  2.065961E-18 -5.742421E-01  0.000000E+00
  9.473580E-01  1.538821E-02  5.000000E-01  9.569269E-01  1.558236E-02  0.000000E+00 -1.150223E-03  3.983933E-04  1.308795E-18 -5.757521E-01  0.000000E+00
  9.408450E-01  1.764045E-02  5.000000E-01  9.503481E-01  1.785734E-02  0.000000E+00 -1.016818E-03  3.507752E-04 -2.933903E-19 -5.764286E-01  0.000000E+00
  9.338260E-01  2.005389E-02  5.000000E-01  9.432582E-01  2.029515E-02  0.000000E+00 -9.056158E-04  3.100105E-04 -1.323547E-18 -5.765000E-01  0.000000E+00
  9.262910E-01  2.262009E-02  5.000000E-01  9.356471E-01  2.288727E-02  0.000000E+00 -8.371955E-04  2.831289E-04 -6.294458E-19 -5.763188E-01  0.000000E+00
  9.182290E-01  2.532623E-02  5.000000E-01  9.275037E-01  2.562073E-02  0.000000E+00 -8.254660E-04  2.742131E-04 -5.824770E-20 -5.762558E-01  0.000000E+00
  9.096280E-01  2.815459E-02  5.000000E-01  9.188158E-01  2.847766E-02  0.000000E+00 -8.781135E-04  2.845045E-04  1.860235E-19 -5.766713E-01  0.000000E+00
  9.004770E-01  3.108169E-02  5.000000E-01  9.095724E-01  3.143432E-02  0.000000E+00 -9.969651E-04  3.126242E-04  5.491787E-19 -5.778805E-01  0.000000E+00
  8.907650E-01  3.407660E-02  5.000000E-01  8.997623E-01  3.445948E-02  0.000000E+00 -1.179228E-03  3.542512E-04  4.814675E-19 -5.799686E-01  0.000000E+00
  8.804800E-01  3.709793E-02  5.000000E-01  8.893735E-01  3.751132E-02  0.000000E+00 -1.418059E-03  4.017176E-04  4.261948E-19 -5.828360E-01  0.000000E+00
  8.696090E-01  4.008991E-02  5.000000E-01  8.783927E-01  4.053351E-02  0.000000E+00 -1.699158E-03  4.455814E-04  6.745528E-19 -5.864177E-01  0.000000E+00
  8.696090E-01  4.008991E-02  5.000000E-01  8.783927E-01  4.053351E-02  0.000000E+00 -1.699158E-03  4.455814E-04  6.745528E-19 -5.864177E-01  0.000000E+00
  8.581400E-01  4.298047E-02  5.000000E-01  8.668079E-01  4.345326E-02  0.000000E+00 -2.002490E-03  4.769171E-04  9.815608E-20 -5.897243E-01  0.000000E+00
  8.460600E-01  4.568542E-02  5.000000E-01  8.546059E-01  4.618553E-02  0.000000E+00 -2.310287E-03  4.855685E-04  2.158299E-19 -5.905548E-01  0.000000E+00
  8.333640E-01  4.812492E-02  5.000000E-01  8.417817E-01  4.864966E-02  0.000000E+00 -2.567491E-03  4.509503E-04  3.639021E-19 -5.921078E-01  0.000000E+00
  8.200460E-01  5.022336E-02  5.000000E-01  8.283292E-01  5.076929E-02  0.000000E+00 -2.540707E-03  3.448746E-04 -4.689636E-19 -6.136461E-01  0.000000E+00
  8.061050E-01  5.191332E-02  5.000000E-01  8.142474E-01  5.247632E-02  0.000000E+00 -1.648188E-03  1.621312E-04  1.189344E-19 -6.844100E-01  0.000000E+00
  7.915460E-01  5.316906E-02  5.000000E-01  7.995413E-01  5.374474E-02  0.000000E+00  9.926676E-04 -5.252002E-05  1.142414E-18 -8.104133E-01  0.000000E+00
  7.763770E-01  5.402978E-02  5.000000E-01  7.842191E-01  5.461416E-02  0.000000E+00  5.991712E-03 -2.164987E-04  1.312732E-18 -9.517306E-01  0.000000E+00
  7.606070E-01  5.456481E-02  5.000000E-01  7.682899E-01  5.515459E-02  0.000000E+00  1.261006E-02 -2.327073E-04 -8.015885E-19 -1.050201E+00  0.000000E+00
  7.442510E-01  5.478145E-02  5.000000E-01  7.517687E-01  5.537342E-02  0.000000E+00  1.845485E-02 -4.495255E-05 -5.436984E-18 -1.081603E+00  0.000000E+00
  7.273250E-01  5.469758E-02  5.000000E-01  7.346718E-01  5.528870E-02  0.000000E+00  2.145706E-02  2.562198E-04 -1.098671E-17 -1.067289E+00  0.000000E+00
  7.098490E-01  5.436565E-02  5.000000E-01  7.170193E-01  5.495342E-02  0.000000E+00  2.167866E-02  4.875581E-04 -1.427259E-17 -1.042295E+00  0.000000E+00
  6.918480E-01  5.388175E-02  5.000000E-01  6.988365E-01  5.446464E-02  0.000000E+00  2.053721E-02  5.378265E-04 -1.371471E-17 -1.031194E+00  0.000000E+00
  6.733520E-01  5.339602E-02  5.000000E-01  6.801537E-01  5.397399E-02  0.000000E+00  1.933088E-02  3.966339E-04 -1.120601E-17 -1.044706E+00  0.000000E+00
  6.543930E-01  5.310800E-02  5.000000E-01  6.610032E-01  5.368307E-02  0.000000E+00  1.875459E-02  1.294391E-04 -8.162310E-18 -1.079362E+00  0.000000E+00
  6.350090E-01  5.313736E-02  5.000000E-01  6.414235E-01  5.371272E-02  0.000000E+00  1.903441E-02 -1.467975E-04 -5.599126E-18 -1.119807E+00  0.000000E+00
  6.152440E-01  5.341681E-02  5.000000E-01  6.214589E-01  5.399500E-02  0.000000E+00  1.996353E-02 -3.486263E-04 -4.481213E-18 -1.151524E+00  0.000000E+00
  5.951420E-01  5.383635E-02  5.000000E-01  6.011539E-01  5.441878E-02  0.000000E+00  2.108745E-02 -4.395311E-04 -4.774983E-18 -1.167554E+00  0.000000E+00
  5.747530E-01  5.426556E-02  5.000000E-01  5.805590E-01  5.485232E-02  0.000000E+00  2.203839E-02 -3.840041E-04 -5.484274E-18 -1.165435E+00  0.000000E+00
  5.541290E-01  5.455971E-02  5.000000E-01  5.597267E-01  5.514944E-02  0.000000E+00  2.264734E-02 -1.704926E-04 -5.889517E-18 -1.146604E+00  0.000000E+00
  5.333260E-01  5.458115E-02  5.000000E-01  5.387136E-01  5.517109E-02  0.000000E+00  2.285309E-02  1.287434E-04 -6.482520E-18 -1.118461E+00  0.000000E+00
  5.124010E-01  5.431921E-02  5.000000E-01  5.175773E-01  5.490651E-02  0.000000E+00  2.270616E-02  4.072802E-04 -6.717909E-18 -1.090544E+00  0.000000E+00
  4.914140E-01  5.382397E-02  5.000000E-01  4.963783E-01  5.440627E-02  0.000000E+00  2.239014E-02  6.211166E-04 -6.521910E-18 -1.068261E+00  0.000000E+00
  4.704230E-01  5.315129E-02  5.000000E-01  4.751754E-01  5.372680E-02  0.000000E+00  2.208383E-02  7.683982E-04 -6.517187E-18 -1.053658E+00  0.000000E+00
  1.696960E-04 -4.809971E-04  5.000000E-01  1.730287E-04 -4.471156E-04  0.000000E+00 -6.436965E-02  9.282100E-02 -6.765082E-14  5.409108E-01  0.000000E+00
  8.054360E-04 -9.781795E-04  5.000000E-01  8.151890E-04 -9.493189E-04  0.000000E+00 -4.693425E-02  3.286227E-02 -4.881049E-14  1.106832E+00  0.000000E+00
  1.973980E-03 -1.585089E-03  5.000000E-01  1.995534E-03 -1.562357E-03  0.000000E+00 -2.105159E-02  1.047947E-02 -2.522798E-14  1.176614E+00  0.000000E+00
  3.614630E-03 -2.299708E-03  5.000000E-01  3.652753E-03 -2.284194E-03  0.000000E+00 -4.055503E-03  1.772908E-03 -8.745789E-15  1.152925E+00  0.000000E+00
  5.721210E-03 -3.130466E-03  5.000000E-01  5.780607E-03 -3.123341E-03  0.000000E+00  5.020172E-03 -1.863711E-03 -7.510532E-16  1.122580E+00  0.000000E+00
  8.297500E-03 -4.074883E-03  5.000000E-01  8.382914E-03 -4.077295E-03  0.000000E+00  9.329685E-03 -3.267885E-03  1.455488E-15  1.078246E+00  0.000000E+00
  1.136560E-02 -5.113352E-03  5.000000E-01  1.148200E-02 -5.126252E-03  0.000000E+00  1.109802E-02 -3.619059E-03  1.126097E-15  1.023817E+00  0.000000E+00
  1.493280E-02 -6.234628E-03  5.000000E-01  1.508522E-02 -6.258851E-03  0.000000E+00  1.169356E-02 -3.584604E-03  3.968403E-16  9.693060E-01  0.000000E+00
  1.899460E-02 -7.447020E-03  5.000000E-01  1.918804E-02 -7.483488E-03  0.000000E+00  1.194996E-02 -3.514677E-03  6.663845E-17  9.186134E-01  0.000000E+00
  2.354800E-02 -8.766581E-03  5.000000E-01  2.378743E-02 -8.816374E-03  0.000000E+00  1.228440E-02 -3.506720E-03  5.491385E-17  8.687326E-01  0.000000E+00
  2.860130E-02 -1.018882E-02  5.000000E-01  2.889176E-02 -1.025298E-02  0.000000E+00  1.281556E-02 -3.545722E-03  9.344045E-17  8.170176E-01  0.000000E+00
  3.416500E-02 -1.170265E-02  5.000000E-01  3.451165E-02 -1.178210E-02  0.000000E+00  1.352500E-02 -3.613135E-03  7.926859E-17  7.646927E-01  0.000000E+00
  4.024810E-02 -1.329889E-02  5.000000E-01  4.065618E-02 -1.339446E-02  0.000000E+00  1.435407E-02 -3.689754E-03  3.782431E-17  7.126689E-01  0.000000E+00
  4.686030E-02 -1.496524E-02  5.000000E-01  4.733516E-02 -1.507764E-02  0.000000E+00  1.523836E-02 -3.755744E-03  5.721190E-18  6.607302E-01  0.000000E+00
  5.401090E-02 -1.669002E-02  5.000000E-01  5.455797E-02 -1.681983E-02  0.000000E+00  1.613115E-02 -3.802710E-03 -7.946079E-18  6.089453E-01  0.000000E+00
  6.170850E-02 -1.846459E-02  5.000000E-01  6.233331E-02 -1.861232E-02  0.000000E+00  1.700682E-02 -3.822329E-03 -9.590331E-18  5.569420E-01  0.000000E+00
  6.996310E-02 -2.027463E-02  5.000000E-01  7.067127E-02 -2.044064E-02  0.000000E+00  1.785161E-02 -3.802096E-03 -7.821642E-18  5.040170E-01  0.000000E+00
  7.878500E-02 -2.210052E-02  5.000000E-01  7.958226E-02 -2.228497E-02  0.000000E+00  1.866242E-02 -3.738394E-03 -5.735658E-18  4.503675E-01  0.000000E+00
  8.818390E-02 -2.392313E-02  5.000000E-01  8.907608E-02 -2.412598E-02  0.000000E+00  1.944067E-02 -3.631316E-03 -4.035858E-18  3.964281E-01  0.000000E+00
  9.816930E-02 -2.571990E-02  5.000000E-01  9.916232E-02 -2.594090E-02  0.000000E+00  2.018091E-02 -3.476209E-03 -3.035612E-18  3.422591E-01  0.000000E+00
  1.087500E-01 -2.746396E-02  5.000000E-01  1.098499E-01 -2.770258E-02  0.000000E+00  2.086698E-02 -3.269591E-03 -2.003503E-18  2.882825E-01  0.000000E+00
  1.199340E-01 -2.912802E-02  5.000000E-01  1.211468E-01 -2.938344E-02  0.000000E+00  2.146404E-02 -3.006445E-03 -1.250911E-18  2.352020E-01  0.000000E+00
  1.317280E-01 -3.067998E-02  5.000000E-01  1.330599E-01 -3.095107E-02  0.000000E+00  2.191145E-02 -2.677932E-03 -1.217085E-18  1.838655E-01  0.000000E+00
  1.441380E-01 -3.208250E-02  5.000000E-01  1.455952E-01 -3.236776E-02  0.000000E+00  2.213806E-02 -2.284012E-03 -2.453861E-19  1.360567E-01  0.000000E+00
  1.441380E-01 -3.208250E-02  5.000000E-01  1.455952E-01 -3.236776E-02  0.000000E+00  2.213806E-02 -2.284012E-03 -2.453861E-19  1.360567E-01  0.000000E+00
  1.571670E-01 -3.329912E-02  5.000000E-01  1.587558E-01 -3.359666E-02  0.000000E+00  2.209271E-02 -1.838384E-03  2.064331E-18  9.435229E-02  0.000000E+00
  1.708170E-01 -3.429491E-02  5.000000E-01  1.725437E-01 -3.460251E-02  0.000000E+00  2.178487E-02 -1.370738E-03  4.458557E-18  6.148421E-02  0.000000E+00
  1.850860E-01 -3.504615E-02  5.000000E-01  1.869568E-01 -3.536134E-02  0.000000E+00  2.131835E-02 -9.340230E-04  6.227054E-18  3.980349E-02  0.000000E+00
  1.999720E-01 -3.556143E-02  5.000000E-01  2.019931E-01 -3.588182E-02  0.000000E+00  2.087365E-02 -5.965208E-04  5.599576E-18  3.004535E-02  0.000000E+00
  2.154670E-01 -3.590627E-02  5.000000E-01  2.176446E-01 -3.623015E-02  0.000000E+00  2.059375E-02 -3.846136E-04  3.216727E-18  2.784317E-02  0.000000E+00
  2.315610E-01 -3.615085E-02  5.000000E-01  2.339011E-01 -3.647719E-02  0.000000E+00  2.046620E-02 -2.364475E-04  1.858615E-18  2.312230E-02  0.000000E+00
  2.482400E-01 -3.628680E-02  5.000000E-01  2.507486E-01 -3.661452E-02  0.000000E+00  2.039653E-02 -8.580751E-05  1.608012E-18  1.040398E-02  0.000000E+00
  2.654840E-01 -3.629216E-02  5.000000E-01  2.681667E-01 -3.661993E-02  0.000000E+00  2.031771E-02  8.227316E-05  1.746935E-18 -7.158776E-03  0.000000E+00
  2.832720E-01 -3.614146E-02  5.000000E-01  2.861343E-01 -3.646770E-02  0.000000E+00  2.019242E-02  2.654721E-04  2.061023E-18 -2.453889E-02  0.000000E+00
  3.015770E-01 -3.581343E-02  5.000000E-01  3.046242E-01 -3.613637E-02  0.000000E+00  2.000509E-02  4.543908E-04  2.292923E-18 -3.833007E-02  0.000000E+00
  3.203660E-01 -3.529483E-02  5.000000E-01  3.236030E-01 -3.561253E-02  0.000000E+00  1.975383E-02  6.386557E-04  2.332703E-18 -4.738400E-02  0.000000E+00
  3.396030E-01 -3.458042E-02  5.000000E-01  3.430342E-01 -3.489090E-02  0.000000E+00  1.944200E-02  8.117439E-04  1.748895E-18 -5.204743E-02  0.000000E+00
  3.592490E-01 -3.366821E-02  5.000000E-01  3.628786E-01 -3.396948E-02  0.000000E+00  1.907245E-02  9.716730E-04  1.335688E-18 -5.309704E-02  0.000000E+00
  3.792580E-01 -3.255698E-02  5.000000E-01  3.830897E-01 -3.284703E-02  0.000000E+00  1.864800E-02  1.117205E-03  7.187057E-19 -5.091602E-02  0.000000E+00
  3.995810E-01 -3.124847E-02  5.000000E-01  4.036179E-01 -3.152530E-02  0.000000E+00  1.817247E-02  1.245957E-03 -3.235626E-19 -4.541574E-02  0.000000E+00
  4.201670E-01 -2.974861E-02  5.000000E-01  4.244118E-01 -3.001030E-02  0.000000E+00  1.764871E-02  1.356229E-03  7.028216E-19 -3.650122E-02  0.000000E+00
  4.409600E-01 -2.806535E-02  5.000000E-01  4.454148E-01 -2.831004E-02  0.000000E+00  1.707909E-02  1.447450E-03  9.974628E-19 -2.428535E-02  0.000000E+00
  4.619030E-01 -2.620817E-02  5.000000E-01  4.665693E-01 -2.643410E-02  0.000000E+00  1.647139E-02  1.517666E-03  4.907136E-19 -8.855175E-03  0.000000E+00
  4.829360E-01 -2.419444E-02  5.000000E-01  4.878147E-01 -2.440003E-02  0.000000E+00  1.584003E-02  1.564338E-03  1.428478E-18  9.608814E-03  0.000000E+00
  5.039990E-01 -2.204803E-02  5.000000E-01  5.090904E-01 -2.223195E-02  0.000000E+00  1.520219E-02  1.586702E-03  7.431356E-19  3.056361E-02  0.000000E+00
  5.250310E-01 -1.979874E-02  5.000000E-01  5.303348E-01 -1.995995E-02  0.000000E+00  1.457480E-02  1.586180E-03 -2.006977E-19  5.318117E-02  0.000000E+00
  5.459710E-01 -1.747903E-02  5.000000E-01  5.514863E-01 -1.761681E-02  0.000000E+00  1.397282E-02  1.566343E-03  1.006291E-19  7.651633E-02  0.000000E+00
  5.667600E-01 -1.512025E-02  5.000000E-01  5.724853E-01 -1.523421E-02  0.000000E+00  1.341154E-02  1.530128E-03  7.443374E-19  9.990963E-02  0.000000E+00
  4.704230E-01  5.315129E-02  5.000000E-01  4.751754E-01  5.372680E-02  0.000000E+00  2.208383E-02  7.683982E-04 -6.517187E-18 -1.053658E+00  0.000000E+00
  4.494880E-01  5.236180E-02  5.000000E-01  4.540289E-01  5.292934E-02  0.000000E+00  2.188913E-02  8.562958E-04 -7.159418E-18 -1.046915E+00  0.000000E+00
  4.286690E-01  5.151606E-02  5.000000E-01  4.329997E-01  5.207506E-02  0.000000E+00  2.185898E-02  9.112576E-04 -8.099121E-18 -1.045624E+00  0.000000E+00
  4.080230E-01  5.063484E-02  5.000000E-01  4.121452E-01  5.118493E-02  0.000000E+00  2.200121E-02  9.726297E-04 -9.400701E-18 -1.045758E+00  0.000000E+00
  3.876050E-01  4.970324E-02  5.000000E-01  3.915210E-01  5.024393E-02  0.000000E+00  2.225409E-02  1.058277E-03 -1.085620E-17 -1.044704E+00  0.000000E+00
  3.674690E-01  4.870796E-02  5.000000E-01  3.711816E-01  4.923859E-02  0.000000E+00  2.252956E-02  1.165233E-03 -1.168730E-17 -1.041791E+00  0.000000E+00
  3.476650E-01  4.763899E-02  5.000000E-01  3.511776E-01  4.815883E-02  0.000000E+00  2.277207E-02  1.289181E-03 -1.220912E-17 -1.037076E+00  0.000000E+00
  3.282390E-01  4.648869E-02  5.000000E-01  3.315555E-01  4.699691E-02  0.000000E+00  2.296495E-02  1.427318E-03 -1.269288E-17 -1.030912E+00  0.000000E+00
  3.092330E-01  4.525188E-02  5.000000E-01  3.123575E-01  4.574761E-02  0.000000E+00  2.311070E-02  1.574492E-03 -1.232724E-17 -1.023939E+00  0.000000E+00
  2.906860E-01  4.393154E-02  5.000000E-01  2.936232E-01  4.441394E-02  0.000000E+00  2.321897E-02  1.725592E-03 -1.235514E-17 -1.016787E+00  0.000000E+00
  2.726330E-01  4.253329E-02  5.000000E-01  2.753879E-01  4.300157E-02  0.000000E+00  2.330212E-02  1.879783E-03 -1.256726E-17 -1.009720E+00  0.000000E+00
  2.551020E-01  4.106262E-02  5.000000E-01  2.576799E-01  4.151604E-02  0.000000E+00  2.336854E-02  2.038167E-03 -1.220878E-17 -1.002736E+00  0.000000E+00
  2.381210E-01  3.952546E-02  5.000000E-01  2.405274E-01  3.996336E-02  0.000000E+00  2.342412E-02  2.204147E-03 -1.215426E-17 -9.956877E-01  0.000000E+00
  2.217090E-01  3.792401E-02  5.000000E-01  2.239496E-01  3.834574E-02  0.000000E+00  2.346863E-02  2.378950E-03 -1.196396E-17 -9.888780E-01  0.000000E+00
  2.058840E-01  3.626077E-02  5.000000E-01  2.079648E-01  3.666570E-02  0.000000E+00  2.348231E-02  2.541333E-03 -1.298986E-17 -9.845179E-01  0.000000E+00
  1.906600E-01  3.456333E-02  5.000000E-01  1.925871E-01  3.495111E-02  0.000000E+00  2.345754E-02  2.655059E-03 -1.522414E-17 -9.859985E-01  0.000000E+00
  1.760460E-01  3.288206E-02  5.000000E-01  1.778255E-01  3.325287E-02  0.000000E+00  2.346121E-02  2.724836E-03 -1.978247E-17 -9.938372E-01  0.000000E+00
  1.620500E-01  3.124108E-02  5.000000E-01  1.636881E-01  3.159532E-02  0.000000E+00  2.358463E-02  2.792760E-03 -2.930816E-17 -1.005280E+00  0.000000E+00
  1.486750E-01  2.964257E-02  5.000000E-01  1.501781E-01  2.998067E-02  0.000000E+00  2.384863E-02  2.888462E-03 -4.534238E-17 -1.017412E+00  0.000000E+00
  1.359210E-01  2.807836E-02  5.000000E-01  1.372953E-01  2.840066E-02  0.000000E+00  2.420302E-02  3.019837E-03 -7.074914E-17 -1.028487E+00  0.000000E+00
  1.237890E-01  2.653962E-02  5.000000E-01  1.250407E-01  2.684638E-02  0.000000E+00  2.457731E-02  3.184266E-03 -1.125129E-16 -1.037862E+00  0.000000E+00
  1.122730E-01  2.501685E-02  5.000000E-01  1.134084E-01  2.530823E-02  0.000000E+00  2.492011E-02  3.376588E-03 -1.814667E-16 -1.045636E+00  0.000000E+00
  1.013710E-01  2.350439E-02  5.000000E-01  1.023964E-01  2.378049E-02  0.000000E+00  2.520865E-02  3.590316E-03 -2.953365E-16 -1.052418E+00  0.000000E+00
  9.107400E-02  2.200023E-02  5.000000E-01  9.199536E-02  2.226114E-02  0.000000E+00  2.544658E-02  3.824658E-03 -4.883610E-16 -1.058783E+00  0.000000E+00
  9.107400E-02  2.200023E-02  5.000000E-01  9.199536E-02  2.226114E-02  0.000000E+00  2.544658E-02  3.824658E-03 -4.883610E-16 -1.058783E+00  0.000000E+00
  8.137660E-02  2.050212E-02  5.000000E-01  8.220003E-02  2.074791E-02  0.000000E+00  2.564196E-02  4.077979E-03 -8.210457E-16 -1.065478E+00  0.000000E+00
  7.227050E-02  1.901249E-02  5.000000E-01  7.300197E-02  1.924324E-02  0.000000E+00  2.579918E-02  4.344350E-03 -1.406165E-15 -1.073517E+00  0.000000E+00
  6.374670E-02  1.753644E-02  5.000000E-01  6.439209E-02  1.775228E-02  0.000000E+00  2.592904E-02  4.624895E-03 -2.443418E-15 -1.083570E+00  0.000000E+00
  5.579720E-02  1.607728E-02  5.000000E-01  5.636231E-02  1.627838E-02  0.000000E+00  2.603216E-02  4.915778E-03 -4.246461E-15 -1.096546E+00  0.000000E+00
  4.841260E-02  1.464355E-02  5.000000E-01  4.890313E-02  1.483017E-02  0.000000E+00  2.610670E-02  5.211741E-03 -7.258691E-15 -1.113434E+00  0.000000E+00
  4.158390E-02  1.324305E-02  5.000000E-01  4.200547E-02  1.341552E-02  0.000000E+00  2.615781E-02  5.519236E-03 -1.202945E-14 -1.134625E+00  0.000000E+00
  3.530370E-02  1.188064E-02  5.000000E-01  3.566185E-02  1.203936E-02  0.000000E+00  2.616654E-02  5.832949E-03 -1.911197E-14 -1.160959E+00  0.000000E+00
  2.956270E-02  1.056585E-02  5.000000E-01  2.986287E-02  1.071129E-02  0.000000E+00  2.610568E-02  6.148061E-03 -2.875208E-14 -1.193101E+00  0.000000E+00
  2.435310E-02  9.305207E-03  5.000000E-01  2.460066E-02  9.437918E-03  0.000000E+00  2.593526E-02  6.476448E-03 -4.009760E-14 -1.230463E+00  0.000000E+00
  1.967110E-02  8.099205E-03  5.000000E-01  1.987137E-02  8.219737E-03  0.000000E+00  2.552077E-02  6.788718E-03 -5.017409E-14 -1.273355E+00  0.000000E+00
  1.550860E-02  6.955008E-03  5.000000E-01  1.566684E-02  7.063985E-03  0.000000E+00  2.468440E-02  7.036425E-03 -5.410686E-14 -1.322082E+00  0.000000E+00
  1.185930E-02  5.876277E-03  5.000000E-01  1.198068E-02  5.974360E-03  0.000000E+00  2.332846E-02  7.212304E-03 -4.778533E-14 -1.374798E+00  0.000000E+00
  8.724160E-03  4.859198E-03  5.000000E-01  8.813883E-03  4.947009E-03  0.000000E+00  2.157882E-02  7.343972E-03 -3.180550E-14 -1.431041E+00  0.000000E+00
  6.091130E-03  3.911966E-03  5.000000E-01  6.154263E-03  3.990211E-03  0.000000E+00  2.032373E-02  7.820747E-03 -1.387806E-14 -1.486217E+00  0.000000E+00
  3.952840E-03  3.037300E-03  5.000000E-01  3.994378E-03  3.106713E-03  0.000000E+00  2.113541E-02  9.733994E-03 -4.385665E-15 -1.523394E+00  0.000000E+00
  2.330070E-03  2.222417E-03  5.000000E-01  2.355220E-03  2.283600E-03  0.000000E+00  2.423857E-02  1.419529E-02 -5.755202E-15 -1.531082E+00  0.000000E+00
  1.198080E-03  1.485428E-03  5.000000E-01  1.211798E-03  1.539168E-03  0.000000E+00  2.759931E-02  2.139002E-02 -1.153957E-14 -1.519242E+00  0.000000E+00
  5.019560E-04  8.593942E-04  5.000000E-01  5.086442E-04  9.068121E-04  0.000000E+00  3.041137E-02  3.350357E-02 -1.856802E-14 -1.530788E+00  0.000000E+00
  1.313430E-04  3.762288E-04  5.000000E-01  1.342884E-04  4.187674E-04  0.000000E+00  3.506326E-02  7.036269E-02 -3.049615E-14 -1.566085E+00  0.000000E+00
  8.078190E-06  6.807767E-05  5.000000E-01  9.778777E-06  1.075043E-04  0.000000E+00  3.054266E-02  1.732844E-01 -4.431059E-14 -1.484756E+00  0.000000E+00
 -1.602820E-06 -3.835176E-05  5.000000E-01  0.000000E+00  0.000000E+00  0.000000E+00 -4.944419E-03  2.521459E-01 -5.530116E-14 -1.190863E+00  0.000000E+00
  9.141860E-06 -1.484027E-04  5.000000E-01  1.085319E-05 -1.111623E-04  0.000000E+00 -4.976284E-02  1.967992E-01 -6.690164E-14 -4.687329E-01  0.000000E+00