 Title = "ADflow Slice Data"
Variables =  "CoordinateX"  "CoordinateY"  "CoordinateZ"  "XoC"  "YoC"  "ZoC" "VelocityX" "VelocityY" "VelocityZ" "CoefPressure" "Mach" 
Zone T= "Slice_0001 None Absolute Regular z = 0.50000000"
 Nodes =          192  Elements=          184  ZONETYPE=FELINESEG
 DATAPACKING=POINT
  5.667600E-01 -1.512225E-02  5.000000E-01  5.724853E-01 -1.523621E-02  0.000000E+00  1.341085E-02  1.530362E-03  8.584406E-19  9.988560E-02  0.000000E+00
  5.873410E-01 -1.276018E-02  5.000000E-01  5.932741E-01 -1.285028E-02  0.000000E+00  1.290392E-02  1.479891E-03  1.549145E-18  1.228835E-01  0.000000E+00
  6.076580E-01 -1.043201E-02  5.000000E-01  6.137963E-01 -1.049861E-02  0.000000E+00  1.245879E-02  1.418473E-03  1.181320E-18  1.448512E-01  0.000000E+00
  6.276600E-01 -8.170298E-03  5.000000E-01  6.340003E-01 -8.214051E-03  0.000000E+00  1.207340E-02  1.350328E-03 -5.099120E-19  1.651905E-01  0.000000E+00
  6.472970E-01 -5.999530E-03  5.000000E-01  6.538356E-01 -6.021361E-03  0.000000E+00  1.173841E-02  1.280414E-03 -2.057954E-19  1.835368E-01  0.000000E+00
  6.665260E-01 -3.931598E-03  5.000000E-01  6.732588E-01 -3.932545E-03  0.000000E+00  1.144358E-02  1.211275E-03 -6.652802E-20  2.000969E-01  0.000000E+00
  6.853050E-01 -1.976173E-03  5.000000E-01  6.922274E-01 -1.957373E-03  0.000000E+00  1.118274E-02  1.140397E-03 -9.753721E-19  2.156635E-01  0.000000E+00
  7.035980E-01 -1.503712E-04  5.000000E-01  7.107052E-01 -1.131328E-04  0.000000E+00  1.094571E-02  1.065165E-03 -1.525183E-19  2.305794E-01  0.000000E+00
  7.213750E-01  1.533970E-03  5.000000E-01  7.286617E-01  1.588218E-03  0.000000E+00  1.070972E-02  9.859758E-04 -4.434735E-20  2.445160E-01  0.000000E+00
  7.386080E-01  3.072664E-03  5.000000E-01  7.460687E-01  3.142451E-03  0.000000E+00  1.044571E-02  9.049307E-04 -6.965191E-19  2.574019E-01  0.000000E+00
  7.552750E-01  4.470882E-03  5.000000E-01  7.629040E-01  4.554789E-03  0.000000E+00  1.013553E-02  8.262563E-04 -1.250092E-18  2.696688E-01  0.000000E+00
  7.713580E-01  5.741505E-03  5.000000E-01  7.791495E-01  5.838245E-03  0.000000E+00  9.791971E-03  7.517510E-04 -5.435829E-19  2.818758E-01  0.000000E+00
  7.868410E-01  6.895538E-03  5.000000E-01  7.947888E-01  7.003933E-03  0.000000E+00  9.481981E-03  6.640864E-04  2.431874E-18  2.957468E-01  0.000000E+00
  8.017160E-01  7.873016E-03  5.000000E-01  8.098140E-01  7.991282E-03  0.000000E+00  9.306717E-03  5.403712E-04  3.111043E-18  3.116209E-01  0.000000E+00
  8.159740E-01  8.590559E-03  5.000000E-01  8.242160E-01  8.716071E-03  0.000000E+00  9.329848E-03  3.860475E-04  8.602797E-19  3.245310E-01  0.000000E+00
  8.296120E-01  9.030514E-03  5.000000E-01  8.379918E-01  9.160469E-03  0.000000E+00  9.555172E-03  2.187676E-04  7.153067E-19  3.296092E-01  0.000000E+00
  8.426300E-01  9.209131E-03  5.000000E-01  8.511412E-01  9.340889E-03  0.000000E+00  9.959287E-03  4.534515E-05  1.669138E-18  3.267982E-01  0.000000E+00
  8.550290E-01  9.157769E-03  5.000000E-01  8.636654E-01  9.289009E-03  0.000000E+00  1.051393E-02 -1.332240E-04  1.141682E-18  3.180830E-01  0.000000E+00
  8.668160E-01  8.914149E-03  5.000000E-01  8.755715E-01  9.042929E-03  0.000000E+00  1.119017E-02 -3.157972E-04  7.729144E-19  3.048129E-01  0.000000E+00
  8.779950E-01  8.519527E-03  5.000000E-01  8.868634E-01  8.644322E-03  0.000000E+00  1.195815E-02 -4.998186E-04  6.488587E-19  2.875485E-01  0.000000E+00
  8.885730E-01  8.013173E-03  5.000000E-01  8.975482E-01  8.132854E-03  0.000000E+00  1.278859E-02 -6.827114E-04  1.001043E-19  2.668781E-01  0.000000E+00
  8.985610E-01  7.428452E-03  5.000000E-01  9.076371E-01  7.542228E-03  0.000000E+00  1.364889E-02 -8.577270E-04  6.779595E-20  2.433231E-01  0.000000E+00
  9.079670E-01  6.799135E-03  5.000000E-01  9.171381E-01  6.906556E-03  0.000000E+00  1.449977E-02 -1.012496E-03  9.466873E-19  2.173454E-01  0.000000E+00
  9.168010E-01  6.157729E-03  5.000000E-01  9.260613E-01  6.258672E-03  0.000000E+00  1.530361E-02 -1.137874E-03  1.010061E-18  1.900027E-01  0.000000E+00
  9.168010E-01  6.157729E-03  5.000000E-01  9.260613E-01  6.258672E-03  0.000000E+00  1.530361E-02 -1.137874E-03  1.010061E-18  1.900027E-01  0.000000E+00
  9.250730E-01  5.529035E-03  5.000000E-01  9.344168E-01  5.623629E-03  0.000000E+00  1.603723E-02 -1.235092E-03  1.689495E-18  1.628193E-01  0.000000E+00
  9.327940E-01  4.927294E-03  5.000000E-01  9.422158E-01  5.015811E-03  0.000000E+00  1.670010E-02 -1.315852E-03  2.128426E-19  1.371091E-01  0.000000E+00
  9.399760E-01  4.355782E-03  5.000000E-01  9.494703E-01  4.438527E-03  0.000000E+00  1.730848E-02 -1.391692E-03 -3.257954E-18  1.131406E-01  0.000000E+00
  9.466320E-01  3.815200E-03  5.000000E-01  9.561935E-01  3.892486E-03  0.000000E+00  1.788250E-02 -1.467144E-03  5.404862E-18  9.017630E-02  0.000000E+00
  9.527730E-01  3.306371E-03  5.000000E-01  9.623965E-01  3.378519E-03  0.000000E+00  1.844687E-02 -1.548700E-03  3.162909E-17  6.767659E-02  0.000000E+00
  9.584110E-01  2.827155E-03  5.000000E-01  9.680915E-01  2.894463E-03  0.000000E+00  1.903427E-02 -1.647009E-03  3.887880E-17  4.540913E-02  0.000000E+00
  9.635570E-01  2.374318E-03  5.000000E-01  9.732895E-01  2.437053E-03  0.000000E+00  1.967861E-02 -1.767952E-03 -5.968122E-17  2.265624E-02  0.000000E+00
  9.682220E-01  1.946793E-03  5.000000E-01  9.780016E-01  2.005210E-03  0.000000E+00  2.041203E-02 -1.912163E-03 -2.881369E-16 -1.670688E-03  0.000000E+00
  9.724140E-01  1.545859E-03  5.000000E-01  9.822359E-01  1.600227E-03  0.000000E+00  2.128254E-02 -2.087649E-03 -3.219129E-16 -2.820228E-02  0.000000E+00
  9.761430E-01  1.171440E-03  5.000000E-01  9.860026E-01  1.222027E-03  0.000000E+00  2.237227E-02 -2.311572E-03  5.882671E-16 -5.739085E-02  0.000000E+00
  9.794160E-01  8.242704E-04  5.000000E-01  9.893086E-01  8.713516E-04  0.000000E+00  2.378324E-02 -2.597355E-03  2.654351E-15 -9.031765E-02  0.000000E+00
  9.822400E-01  5.074293E-04  5.000000E-01  9.921611E-01  5.513107E-04  0.000000E+00  2.556636E-02 -2.947191E-03  3.258851E-15 -1.284359E-01  0.000000E+00
  9.846200E-01  2.260650E-04  5.000000E-01  9.945652E-01  2.671050E-04  0.000000E+00  2.759062E-02 -3.347863E-03 -4.257306E-15 -1.720949E-01  0.000000E+00
  9.865620E-01 -1.453607E-05  5.000000E-01  9.965268E-01  2.407412E-05  0.000000E+00  2.940963E-02 -3.711585E-03 -2.422681E-14 -2.194037E-01  0.000000E+00
  9.880680E-01 -2.086060E-04  5.000000E-01  9.980480E-01 -1.719557E-04  0.000000E+00  2.987562E-02 -3.826702E-03 -3.891581E-14 -2.766127E-01  0.000000E+00
  9.891420E-01 -3.514239E-04  5.000000E-01  9.991328E-01 -3.162159E-04  0.000000E+00  2.812842E-02 -3.911137E-03  1.434406E-14 -3.434973E-01  0.000000E+00
  9.897860E-01 -4.389487E-04  5.000000E-01  9.997833E-01 -4.046246E-04  0.000000E+00  3.788613E-02 -4.013270E-03  2.010768E-13 -2.893921E-01  0.000000E+00
  9.900000E-01 -4.683023E-04  5.000000E-01  9.999995E-01 -4.342746E-04  0.000000E+00  2.618842E-02  5.267634E-03  1.894209E-13 -5.820167E-01  0.000000E+00
  9.900000E-01 -1.843754E-04  5.000000E-01  9.999995E-01 -1.474804E-04  0.000000E+00  1.229776E-03 -7.885227E-03  2.685775E-14 -8.088102E-01  0.000000E+00
  9.900000E-01  9.955150E-05  5.000000E-01  9.999995E-01  1.393138E-04  0.000000E+00 -4.468908E-04 -2.274867E-02  3.688136E-16 -6.283600E-01  0.000000E+00
  9.900000E-01  3.834784E-04  5.000000E-01  9.999995E-01  4.261081E-04  0.000000E+00 -1.435993E-04 -8.862980E-03 -6.551922E-15 -6.283160E-01  0.000000E+00
  9.900000E-01  6.674053E-04  5.000000E-01  9.999995E-01  7.129023E-04  0.000000E+00  4.646613E-04 -5.229926E-03 -1.455301E-15 -6.881966E-01  0.000000E+00
  9.900000E-01  9.513321E-04  5.000000E-01  9.999995E-01  9.996965E-04  0.000000E+00  6.797348E-03 -6.632423E-03  5.480246E-15 -6.299454E-01  0.000000E+00
  9.900000E-01  9.513321E-04  5.000000E-01  9.999995E-01  9.996965E-04  0.000000E+00  6.797348E-03 -6.632423E-03  5.480246E-15 -6.299454E-01  0.000000E+00
  9.897890E-01  1.017904E-03  5.000000E-01  9.997864E-01  1.066940E-03  0.000000E+00  9.015779E-03 -3.469590E-03  6.634413E-15 -5.523851E-01  0.000000E+00
  9.891540E-01  1.218674E-03  5.000000E-01  9.991450E-01  1.269738E-03  0.000000E+00  4.567792E-03 -1.351284E-03  3.657822E-15 -5.709875E-01  0.000000E+00
  9.880950E-01  1.555408E-03  5.000000E-01  9.980753E-01  1.609873E-03  0.000000E+00  3.024818E-03 -9.609325E-04  1.033029E-15 -5.705475E-01  0.000000E+00
  9.866100E-01  2.031333E-03  5.000000E-01  9.965753E-01  2.090604E-03  0.000000E+00  1.983791E-03 -6.497905E-04 -1.761125E-17 -5.626476E-01  0.000000E+00
  9.846960E-01  2.650662E-03  5.000000E-01  9.946419E-01  2.716188E-03  0.000000E+00  9.959455E-04 -3.234751E-04 -1.077550E-16 -5.590097E-01  0.000000E+00
  9.823490E-01  3.418251E-03  5.000000E-01  9.922712E-01  3.491529E-03  0.000000E+00  1.850262E-04 -5.919888E-05  1.058159E-17 -5.580301E-01  0.000000E+00
  9.795670E-01  4.338749E-03  5.000000E-01  9.894611E-01  4.421322E-03  0.000000E+00 -4.277866E-04  1.427174E-04  4.807347E-17 -5.582719E-01  0.000000E+00
  9.763420E-01  5.417935E-03  5.000000E-01  9.862036E-01  5.511407E-03  0.000000E+00 -8.715565E-04  2.932728E-04  1.888972E-17 -5.597165E-01  0.000000E+00
  9.726710E-01  6.659543E-03  5.000000E-01  9.824955E-01  6.765554E-03  0.000000E+00 -1.170592E-03  3.976920E-04 -8.717157E-18 -5.622502E-01  0.000000E+00
  9.685460E-01  8.066753E-03  5.000000E-01  9.783288E-01  8.186975E-03  0.000000E+00 -1.342176E-03  4.594584E-04 -1.161203E-17 -5.654535E-01  0.000000E+00
  9.639600E-01  9.641707E-03  5.000000E-01  9.736965E-01  9.777834E-03  0.000000E+00 -1.402945E-03  4.831375E-04 -3.591741E-18 -5.688187E-01  0.000000E+00
  9.589060E-01  1.138655E-02  5.000000E-01  9.685915E-01  1.154030E-02  0.000000E+00 -1.373311E-03  4.750000E-04  5.656272E-21 -5.718697E-01  0.000000E+00
  9.533750E-01  1.330247E-02  5.000000E-01  9.630046E-01  1.347557E-02  0.000000E+00 -1.279138E-03  4.433725E-04  6.205031E-19 -5.742430E-01  0.000000E+00
  9.473580E-01  1.538821E-02  5.000000E-01  9.569269E-01  1.558238E-02  0.000000E+00 -1.150257E-03  3.984051E-04  3.136504E-19 -5.757532E-01  0.000000E+00
  9.408450E-01  1.764045E-02  5.000000E-01  9.503481E-01  1.785736E-02  0.000000E+00 -1.016878E-03  3.507958E-04 -9.027116E-19 -5.764300E-01  0.000000E+00
  9.338260E-01  2.005389E-02  5.000000E-01  9.432582E-01  2.029517E-02  0.000000E+00 -9.056984E-04  3.100389E-04 -8.990815E-19 -5.765016E-01  0.000000E+00
  9.262910E-01  2.262010E-02  5.000000E-01  9.356471E-01  2.288729E-02  0.000000E+00 -8.372940E-04  2.831623E-04 -1.249311E-18 -5.763205E-01  0.000000E+00
  9.182290E-01  2.532623E-02  5.000000E-01  9.275037E-01  2.562075E-02  0.000000E+00 -8.255674E-04  2.742470E-04 -1.065605E-19 -5.762574E-01  0.000000E+00
  9.096280E-01  2.815459E-02  5.000000E-01  9.188158E-01  2.847768E-02  0.000000E+00 -8.781981E-04  2.845322E-04  6.229088E-19 -5.766728E-01  0.000000E+00
  9.004770E-01  3.108170E-02  5.000000E-01  9.095724E-01  3.143435E-02  0.000000E+00 -9.970085E-04  3.126382E-04  3.862588E-21 -5.778818E-01  0.000000E+00
  8.907650E-01  3.407662E-02  5.000000E-01  8.997623E-01  3.445951E-02  0.000000E+00 -1.179206E-03  3.542453E-04  1.572539E-18 -5.799695E-01  0.000000E+00
  8.804800E-01  3.709795E-02  5.000000E-01  8.893735E-01  3.751136E-02  0.000000E+00 -1.417955E-03  4.016902E-04  1.372331E-18 -5.828365E-01  0.000000E+00
  8.696090E-01  4.008994E-02  5.000000E-01  8.783927E-01  4.053356E-02  0.000000E+00 -1.698978E-03  4.455361E-04 -1.008823E-19 -5.864176E-01  0.000000E+00
  8.696090E-01  4.008994E-02  5.000000E-01  8.783927E-01  4.053356E-02  0.000000E+00 -1.698978E-03  4.455361E-04 -1.008823E-19 -5.864176E-01  0.000000E+00
  8.581400E-01  4.298051E-02  5.000000E-01  8.668079E-01  4.345332E-02  0.000000E+00 -2.002253E-03  4.768614E-04 -4.437619E-19 -5.897245E-01  0.000000E+00
  8.460600E-01  4.568548E-02  5.000000E-01  8.546059E-01  4.618561E-02  0.000000E+00 -2.310023E-03  4.855147E-04  9.556851E-20 -5.905572E-01  0.000000E+00
  8.333640E-01  4.812500E-02  5.000000E-01  8.417817E-01  4.864977E-02  0.000000E+00 -2.567265E-03  4.509194E-04  5.302072E-19 -5.921096E-01  0.000000E+00
  8.200460E-01  5.022348E-02  5.000000E-01  8.283292E-01  5.076943E-02  0.000000E+00 -2.540730E-03  3.448912E-04  3.315110E-19 -6.136330E-01  0.000000E+00
  8.061050E-01  5.191349E-02  5.000000E-01  8.142474E-01  5.247651E-02  0.000000E+00 -1.648915E-03  1.622061E-04 -1.531160E-19 -6.843654E-01  0.000000E+00
  7.915460E-01  5.316930E-02  5.000000E-01  7.995413E-01  5.374501E-02  0.000000E+00  9.906300E-04 -5.240470E-05 -6.944040E-20 -8.103422E-01  0.000000E+00
  7.763770E-01  5.403013E-02  5.000000E-01  7.842191E-01  5.461453E-02  0.000000E+00  5.988262E-03 -2.164090E-04  5.152981E-19 -9.516648E-01  0.000000E+00
  7.606070E-01  5.456529E-02  5.000000E-01  7.682899E-01  5.515509E-02  0.000000E+00  1.260631E-02 -2.327319E-04 -1.974702E-18 -1.050172E+00  0.000000E+00
  7.442510E-01  5.478210E-02  5.000000E-01  7.517687E-01  5.537409E-02  0.000000E+00  1.845247E-02 -4.511862E-05 -5.965227E-18 -1.081613E+00  0.000000E+00
  7.273250E-01  5.469841E-02  5.000000E-01  7.346718E-01  5.528956E-02  0.000000E+00  2.145671E-02  2.559820E-04 -1.047069E-17 -1.067324E+00  0.000000E+00
  7.098490E-01  5.436668E-02  5.000000E-01  7.170193E-01  5.495448E-02  0.000000E+00  2.167963E-02  4.873390E-04 -1.398058E-17 -1.042336E+00  0.000000E+00
  6.918480E-01  5.388298E-02  5.000000E-01  6.988365E-01  5.446589E-02  0.000000E+00  2.053855E-02  5.376635E-04 -1.421802E-17 -1.031233E+00  0.000000E+00
  6.733520E-01  5.339740E-02  5.000000E-01  6.801537E-01  5.397541E-02  0.000000E+00  1.933204E-02  3.965311E-04 -1.200198E-17 -1.044735E+00  0.000000E+00
  6.543930E-01  5.310947E-02  5.000000E-01  6.610032E-01  5.368457E-02  0.000000E+00  1.875545E-02  1.293978E-04 -8.152496E-18 -1.079379E+00  0.000000E+00
  6.350090E-01  5.313883E-02  5.000000E-01  6.414235E-01  5.371423E-02  0.000000E+00  1.903500E-02 -1.467836E-04 -4.977880E-18 -1.119813E+00  0.000000E+00
  6.152440E-01  5.341825E-02  5.000000E-01  6.214589E-01  5.399647E-02  0.000000E+00  1.996393E-02 -3.485770E-04 -4.649446E-18 -1.151525E+00  0.000000E+00
  5.951420E-01  5.383772E-02  5.000000E-01  6.011539E-01  5.442018E-02  0.000000E+00  2.108775E-02 -4.394772E-04 -5.595594E-18 -1.167553E+00  0.000000E+00
  5.747530E-01  5.426688E-02  5.000000E-01  5.805590E-01  5.485367E-02  0.000000E+00  2.203870E-02 -3.839868E-04 -6.026876E-18 -1.165439E+00  0.000000E+00
  5.541290E-01  5.456103E-02  5.000000E-01  5.597267E-01  5.515079E-02  0.000000E+00  2.264776E-02 -1.705475E-04 -6.469775E-18 -1.146616E+00  0.000000E+00
  5.333260E-01  5.458256E-02  5.000000E-01  5.387136E-01  5.517254E-02  0.000000E+00  2.285373E-02  1.286333E-04 -6.320189E-18 -1.118480E+00  0.000000E+00
  5.124010E-01  5.432074E-02  5.000000E-01  5.175773E-01  5.490807E-02  0.000000E+00  2.270710E-02  4.071973E-04 -4.985005E-18 -1.090562E+00  0.000000E+00
  4.914140E-01  5.382557E-02  5.000000E-01  4.963783E-01  5.440790E-02  0.000000E+00  2.239138E-02  6.211620E-04 -5.693051E-18 -1.068266E+00  0.000000E+00
  4.704230E-01  5.315280E-02  5.000000E-01  4.751754E-01  5.372834E-02  0.000000E+00  2.208521E-02  7.686643E-04 -7.121129E-18 -1.053637E+00  0.000000E+00
  1.696960E-04 -4.810172E-04  5.000000E-01  1.730287E-04 -4.471180E-04  0.000000E+00 -6.436949E-02  9.282165E-02 -6.731004E-14  5.408956E-01  0.000000E+00
  8.054360E-04 -9.782094E-04  5.000000E-01  8.151890E-04 -9.493313E-04  0.000000E+00 -4.693442E-02  3.286307E-02 -5.225113E-14  1.106823E+00  0.000000E+00
  1.973980E-03 -1.585136E-03  5.000000E-01  1.995534E-03 -1.562387E-03  0.000000E+00 -2.105199E-02  1.047997E-02 -2.847022E-14  1.176612E+00  0.000000E+00
  3.614630E-03 -2.299778E-03  5.000000E-01  3.652753E-03 -2.284246E-03  0.000000E+00 -4.055902E-03  1.773132E-03 -9.346092E-15  1.152928E+00  0.000000E+00
  5.721210E-03 -3.130562E-03  5.000000E-01  5.780607E-03 -3.123421E-03  0.000000E+00  5.019850E-03 -1.863646E-03  3.756573E-16  1.122584E+00  0.000000E+00
  8.297500E-03 -4.075008E-03  5.000000E-01  8.382914E-03 -4.077404E-03  0.000000E+00  9.329442E-03 -3.267897E-03  2.680312E-15  1.078251E+00  0.000000E+00
  1.136560E-02 -5.113508E-03  5.000000E-01  1.148200E-02 -5.126392E-03  0.000000E+00  1.109784E-02 -3.619104E-03  1.810148E-15  1.023822E+00  0.000000E+00
  1.493280E-02 -6.234815E-03  5.000000E-01  1.508522E-02 -6.259023E-03  0.000000E+00  1.169343E-02 -3.584660E-03  6.099631E-16  9.693111E-01  0.000000E+00
  1.899460E-02 -7.447239E-03  5.000000E-01  1.918804E-02 -7.483690E-03  0.000000E+00  1.194986E-02 -3.514733E-03 -2.061199E-17  9.186180E-01  0.000000E+00
  2.354800E-02 -8.766829E-03  5.000000E-01  2.378743E-02 -8.816607E-03  0.000000E+00  1.228432E-02 -3.506771E-03 -1.754166E-16  8.687367E-01  0.000000E+00
  2.860130E-02 -1.018909E-02  5.000000E-01  2.889176E-02 -1.025324E-02  0.000000E+00  1.281550E-02 -3.545769E-03 -1.288906E-16  8.170212E-01  0.000000E+00
  3.416500E-02 -1.170295E-02  5.000000E-01  3.451165E-02 -1.178238E-02  0.000000E+00  1.352496E-02 -3.613177E-03 -5.057018E-17  7.646960E-01  0.000000E+00
  4.024810E-02 -1.329921E-02  5.000000E-01  4.065618E-02 -1.339476E-02  0.000000E+00  1.435404E-02 -3.689790E-03 -1.780332E-18  7.126719E-01  0.000000E+00
  4.686030E-02 -1.496558E-02  5.000000E-01  4.733516E-02 -1.507796E-02  0.000000E+00  1.523835E-02 -3.755773E-03  1.247646E-17  6.607329E-01  0.000000E+00
  5.401090E-02 -1.669036E-02  5.000000E-01  5.455797E-02 -1.682016E-02  0.000000E+00  1.613114E-02 -3.802730E-03  9.909668E-18  6.089479E-01  0.000000E+00
  6.170850E-02 -1.846494E-02  5.000000E-01  6.233331E-02 -1.861266E-02  0.000000E+00  1.700681E-02 -3.822339E-03  4.242684E-18  5.569447E-01  0.000000E+00
  6.996310E-02 -2.027499E-02  5.000000E-01  7.067127E-02 -2.044099E-02  0.000000E+00  1.785160E-02 -3.802092E-03  1.208471E-18  5.040198E-01  0.000000E+00
  7.878500E-02 -2.210088E-02  5.000000E-01  7.958226E-02 -2.228532E-02  0.000000E+00  1.866239E-02 -3.738376E-03  1.500556E-18  4.503709E-01  0.000000E+00
  8.818390E-02 -2.392347E-02  5.000000E-01  8.907608E-02 -2.412632E-02  0.000000E+00  1.944062E-02 -3.631282E-03 -6.113118E-20  3.964324E-01  0.000000E+00
  9.816930E-02 -2.572023E-02  5.000000E-01  9.916232E-02 -2.594122E-02  0.000000E+00  2.018082E-02 -3.476156E-03 -1.459024E-18  3.422648E-01  0.000000E+00
  1.087500E-01 -2.746427E-02  5.000000E-01  1.098499E-01 -2.770288E-02  0.000000E+00  2.086682E-02 -3.269518E-03  4.852797E-19  2.882902E-01  0.000000E+00
  1.199340E-01 -2.912830E-02  5.000000E-01  1.211468E-01 -2.938370E-02  0.000000E+00  2.146378E-02 -3.006352E-03  9.186285E-19  2.352125E-01  0.000000E+00
  1.317280E-01 -3.068023E-02  5.000000E-01  1.330599E-01 -3.095130E-02  0.000000E+00  2.191106E-02 -2.677822E-03 -1.612331E-20  1.838801E-01  0.000000E+00
  1.441380E-01 -3.208271E-02  5.000000E-01  1.455952E-01 -3.236796E-02  0.000000E+00  2.213750E-02 -2.283892E-03 -6.971912E-20  1.360768E-01  0.000000E+00
  1.441380E-01 -3.208271E-02  5.000000E-01  1.455952E-01 -3.236796E-02  0.000000E+00  2.213750E-02 -2.283892E-03 -6.971912E-20  1.360768E-01  0.000000E+00
  1.571670E-01 -3.329929E-02  5.000000E-01  1.587558E-01 -3.359682E-02  0.000000E+00  2.209195E-02 -1.838270E-03  7.823402E-19  9.437940E-02  0.000000E+00
  1.708170E-01 -3.429506E-02  5.000000E-01  1.725437E-01 -3.460264E-02  0.000000E+00  2.178393E-02 -1.370655E-03  1.588193E-18  6.151972E-02  0.000000E+00
  1.850860E-01 -3.504630E-02  5.000000E-01  1.869568E-01 -3.536147E-02  0.000000E+00  2.131729E-02 -9.340036E-04  3.525991E-18  3.984785E-02  0.000000E+00
  1.999720E-01 -3.556161E-02  5.000000E-01  2.019931E-01 -3.588199E-02  0.000000E+00  2.087259E-02 -5.965998E-04  3.128981E-18  3.009737E-02  0.000000E+00
  2.154670E-01 -3.590658E-02  5.000000E-01  2.176446E-01 -3.623044E-02  0.000000E+00  2.059287E-02 -3.848193E-04  3.761835E-19  2.789913E-02  0.000000E+00
  2.315610E-01 -3.615138E-02  5.000000E-01  2.339011E-01 -3.647771E-02  0.000000E+00  2.046568E-02 -2.367872E-04 -5.250331E-19  2.317563E-02  0.000000E+00
  2.482400E-01 -3.628767E-02  5.000000E-01  2.507486E-01 -3.661537E-02  0.000000E+00  2.039652E-02 -8.626527E-05 -8.256308E-19  1.044691E-02  0.000000E+00
  2.654840E-01 -3.629345E-02  5.000000E-01  2.681667E-01 -3.662122E-02  0.000000E+00  2.031831E-02  8.173281E-05  6.483034E-19 -7.133461E-03  0.000000E+00
  2.832720E-01 -3.614326E-02  5.000000E-01  2.861343E-01 -3.646951E-02  0.000000E+00  2.019363E-02  2.649039E-04  1.975260E-18 -2.453714E-02  0.000000E+00
  3.015770E-01 -3.581578E-02  5.000000E-01  3.046242E-01 -3.613872E-02  0.000000E+00  2.000678E-02  4.538647E-04  1.850875E-18 -3.835562E-02  0.000000E+00
  3.203660E-01 -3.529769E-02  5.000000E-01  3.236030E-01 -3.561539E-02  0.000000E+00  1.975576E-02  6.382441E-04  1.440924E-18 -4.743690E-02  0.000000E+00
  3.396030E-01 -3.458367E-02  5.000000E-01  3.430342E-01 -3.489417E-02  0.000000E+00  1.944390E-02  8.114890E-04  1.687018E-18 -5.212184E-02  0.000000E+00
  3.592490E-01 -3.367172E-02  5.000000E-01  3.628786E-01 -3.397301E-02  0.000000E+00  1.907413E-02  9.715658E-04  1.545481E-18 -5.318188E-02  0.000000E+00
  3.792580E-01 -3.256063E-02  5.000000E-01  3.830897E-01 -3.285070E-02  0.000000E+00  1.864939E-02  1.117209E-03  5.654539E-19 -5.100051E-02  0.000000E+00
  3.995810E-01 -3.125214E-02  5.000000E-01  4.036179E-01 -3.152900E-02  0.000000E+00  1.817357E-02  1.246038E-03  4.318897E-19 -4.549350E-02  0.000000E+00
  4.201670E-01 -2.975224E-02  5.000000E-01  4.244118E-01 -3.001395E-02  0.000000E+00  1.764958E-02  1.356355E-03  4.013674E-19 -3.657003E-02  0.000000E+00
  4.409600E-01 -2.806889E-02  5.000000E-01  4.454148E-01 -2.831360E-02  0.000000E+00  1.707983E-02  1.447598E-03 -1.303871E-18 -2.434578E-02  0.000000E+00
  4.619030E-01 -2.621159E-02  5.000000E-01  4.665693E-01 -2.643754E-02  0.000000E+00  1.647204E-02  1.517830E-03 -3.282799E-18 -8.909676E-03  0.000000E+00
  4.829360E-01 -2.419771E-02  5.000000E-01  4.878147E-01 -2.440333E-02  0.000000E+00  1.584059E-02  1.564523E-03 -2.051650E-18  9.557717E-03  0.000000E+00
  5.039990E-01 -2.205111E-02  5.000000E-01  5.090904E-01 -2.223505E-02  0.000000E+00  1.520258E-02  1.586910E-03 -8.570304E-20  3.051549E-02  0.000000E+00
  5.250310E-01 -1.980155E-02  5.000000E-01  5.303348E-01 -1.996277E-02  0.000000E+00  1.457491E-02  1.586408E-03  1.055223E-18  5.313771E-02  0.000000E+00
  5.459710E-01 -1.748149E-02  5.000000E-01  5.514863E-01 -1.761927E-02  0.000000E+00  1.397256E-02  1.566584E-03  1.266431E-18  7.648050E-02  0.000000E+00
  5.667600E-01 -1.512225E-02  5.000000E-01  5.724853E-01 -1.523621E-02  0.000000E+00  1.341085E-02  1.530362E-03  8.584406E-19  9.988560E-02  0.000000E+00
  4.704230E-01  5.315280E-02  5.000000E-01  4.751754E-01  5.372834E-02  0.000000E+00  2.208521E-02  7.686643E-04 -7.121129E-18 -1.053637E+00  0.000000E+00
  4.494880E-01  5.236299E-02  5.000000E-01  4.540289E-01  5.293056E-02  0.000000E+00  2.189044E-02  8.568581E-04 -7.348087E-18 -1.046857E+00  0.000000E+00
  4.286690E-01  5.151661E-02  5.000000E-01  4.329997E-01  5.207562E-02  0.000000E+00  2.185990E-02  9.121298E-04 -8.086000E-18 -1.045526E+00  0.000000E+00
  4.080230E-01  5.063445E-02  5.000000E-01  4.121452E-01  5.118455E-02  0.000000E+00  2.200141E-02  9.737299E-04 -9.653666E-18 -1.045627E+00  0.000000E+00
  3.876050E-01  4.970175E-02  5.000000E-01  3.915210E-01  5.024243E-02  0.000000E+00  2.225340E-02  1.059475E-03 -1.089054E-17 -1.044556E+00  0.000000E+00
  3.674690E-01  4.870532E-02  5.000000E-01  3.711816E-01  4.923594E-02  0.000000E+00  2.252804E-02  1.166397E-03 -1.171517E-17 -1.041642E+00  0.000000E+00
  3.476650E-01  4.763529E-02  5.000000E-01  3.511776E-01  4.815511E-02  0.000000E+00  2.276994E-02  1.290186E-03 -1.223346E-17 -1.036942E+00  0.000000E+00
  3.282390E-01  4.648410E-02  5.000000E-01  3.315555E-01  4.699230E-02  0.000000E+00  2.296249E-02  1.428066E-03 -1.204900E-17 -1.030807E+00  0.000000E+00
  3.092330E-01  4.524667E-02  5.000000E-01  3.123575E-01  4.574236E-02  0.000000E+00  2.310823E-02  1.574951E-03 -1.212399E-17 -1.023869E+00  0.000000E+00
  2.906860E-01  4.392593E-02  5.000000E-01  2.936232E-01  4.440829E-02  0.000000E+00  2.321676E-02  1.725800E-03 -1.288971E-17 -1.016751E+00  0.000000E+00
  2.726330E-01  4.252749E-02  5.000000E-01  2.753879E-01  4.299572E-02  0.000000E+00  2.330033E-02  1.879791E-03 -1.261682E-17 -1.009714E+00  0.000000E+00
  2.551020E-01  4.105678E-02  5.000000E-01  2.576799E-01  4.151016E-02  0.000000E+00  2.336717E-02  2.038021E-03 -1.232921E-17 -1.002755E+00  0.000000E+00
  2.381210E-01  3.951970E-02  5.000000E-01  2.405274E-01  3.995756E-02  0.000000E+00  2.342313E-02  2.203886E-03 -1.319005E-17 -9.957261E-01  0.000000E+00
  2.217090E-01  3.791841E-02  5.000000E-01  2.239496E-01  3.834010E-02  0.000000E+00  2.346792E-02  2.378601E-03 -1.308856E-17 -9.889320E-01  0.000000E+00
  2.058840E-01  3.625539E-02  5.000000E-01  2.079648E-01  3.666028E-02  0.000000E+00  2.348182E-02  2.540917E-03 -1.274887E-17 -9.845840E-01  0.000000E+00
  1.906600E-01  3.455820E-02  5.000000E-01  1.925871E-01  3.494596E-02  0.000000E+00  2.345718E-02  2.654592E-03 -1.408251E-17 -9.860737E-01  0.000000E+00
  1.760460E-01  3.287722E-02  5.000000E-01  1.778255E-01  3.324800E-02  0.000000E+00  2.346093E-02  2.724326E-03 -1.827513E-17 -9.939194E-01  0.000000E+00
  1.620500E-01  3.123654E-02  5.000000E-01  1.636881E-01  3.159075E-02  0.000000E+00  2.358441E-02  2.792210E-03 -2.840794E-17 -1.005367E+00  0.000000E+00
  1.486750E-01  2.963834E-02  5.000000E-01  1.501781E-01  2.997641E-02  0.000000E+00  2.384843E-02  2.887872E-03 -4.561731E-17 -1.017503E+00  0.000000E+00
  1.359210E-01  2.807443E-02  5.000000E-01  1.372953E-01  2.839671E-02  0.000000E+00  2.420283E-02  3.019209E-03 -7.173041E-17 -1.028582E+00  0.000000E+00
  1.237890E-01  2.653601E-02  5.000000E-01  1.250407E-01  2.684275E-02  0.000000E+00  2.457714E-02  3.183600E-03 -1.125497E-16 -1.037960E+00  0.000000E+00
  1.122730E-01  2.501354E-02  5.000000E-01  1.134084E-01  2.530491E-02  0.000000E+00  2.491994E-02  3.375889E-03 -1.779783E-16 -1.045737E+00  0.000000E+00
  1.013710E-01  2.350138E-02  5.000000E-01  1.023964E-01  2.377748E-02  0.000000E+00  2.520850E-02  3.589588E-03 -2.922524E-16 -1.052521E+00  0.000000E+00
  9.107400E-02  2.199752E-02  5.000000E-01  9.199536E-02  2.225842E-02  0.000000E+00  2.544646E-02  3.823905E-03 -4.940487E-16 -1.058888E+00  0.000000E+00
  9.107400E-02  2.199752E-02  5.000000E-01  9.199536E-02  2.225842E-02  0.000000E+00  2.544646E-02  3.823905E-03 -4.940487E-16 -1.058888E+00  0.000000E+00
  8.137660E-02  2.049969E-02  5.000000E-01  8.220003E-02  2.074547E-02  0.000000E+00  2.564187E-02  4.077208E-03 -8.433235E-16 -1.065585E+00  0.000000E+00
  7.227050E-02  1.901034E-02  5.000000E-01  7.300197E-02  1.924108E-02  0.000000E+00  2.579913E-02  4.343564E-03 -1.442710E-15 -1.073625E+00  0.000000E+00
  6.374670E-02  1.753455E-02  5.000000E-01  6.439209E-02  1.775038E-02  0.000000E+00  2.592903E-02  4.624100E-03 -2.460773E-15 -1.083679E+00  0.000000E+00
  5.579720E-02  1.607563E-02  5.000000E-01  5.636231E-02  1.627673E-02  0.000000E+00  2.603219E-02  4.914978E-03 -4.190873E-15 -1.096655E+00  0.000000E+00
  4.841260E-02  1.464213E-02  5.000000E-01  4.890313E-02  1.482875E-02  0.000000E+00  2.610674E-02  5.210937E-03 -7.127048E-15 -1.113542E+00  0.000000E+00
  4.158390E-02  1.324184E-02  5.000000E-01  4.200547E-02  1.341432E-02  0.000000E+00  2.615784E-02  5.518428E-03 -1.195135E-14 -1.134733E+00  0.000000E+00
  3.530370E-02  1.187963E-02  5.000000E-01  3.566185E-02  1.203836E-02  0.000000E+00  2.616653E-02  5.832137E-03 -1.929794E-14 -1.161064E+00  0.000000E+00
  2.956270E-02  1.056501E-02  5.000000E-01  2.986287E-02  1.071046E-02  0.000000E+00  2.610560E-02  6.147244E-03 -2.920270E-14 -1.193203E+00  0.000000E+00
  2.435310E-02  9.304530E-03  5.000000E-01  2.460066E-02  9.437252E-03  0.000000E+00  2.593509E-02  6.475623E-03 -4.032266E-14 -1.230561E+00  0.000000E+00
  1.967110E-02  8.098668E-03  5.000000E-01  1.987137E-02  8.219212E-03  0.000000E+00  2.552046E-02  6.787881E-03 -4.951695E-14 -1.273448E+00  0.000000E+00
  1.550860E-02  6.954592E-03  5.000000E-01  1.566684E-02  7.063583E-03  0.000000E+00  2.468391E-02  7.035577E-03 -5.281547E-14 -1.322170E+00  0.000000E+00
  1.185930E-02  5.875964E-03  5.000000E-01  1.198068E-02  5.974062E-03  0.000000E+00  2.332780E-02  7.211454E-03 -4.766455E-14 -1.374879E+00  0.000000E+00
  8.724160E-03  4.858970E-03  5.000000E-01  8.813883E-03  4.946797E-03  0.000000E+00  2.157812E-02  7.343157E-03 -3.471574E-14 -1.431117E+00  0.000000E+00
  6.091130E-03  3.911806E-03  5.000000E-01  6.154263E-03  3.990068E-03  0.000000E+00  2.032323E-02  7.820049E-03 -1.846119E-14 -1.486286E+00  0.000000E+00
  3.952840E-03  3.037194E-03  5.000000E-01  3.994378E-03  3.106623E-03  0.000000E+00  2.113545E-02  9.733522E-03 -5.778608E-15 -1.523455E+00  0.000000E+00
  2.330070E-03  2.222349E-03  5.000000E-01  2.355220E-03  2.283549E-03  0.000000E+00  2.423927E-02  1.419516E-02 -2.399391E-15 -1.531138E+00  0.000000E+00
  1.198080E-03  1.485385E-03  5.000000E-01  1.211798E-03  1.539143E-03  0.000000E+00  2.760050E-02  2.139035E-02 -9.375388E-15 -1.519294E+00  0.000000E+00
  5.019560E-04  8.593658E-04  5.000000E-01  5.086442E-04  9.068014E-04  0.000000E+00  3.041289E-02  3.350467E-02 -2.195279E-14 -1.530835E+00  0.000000E+00
  1.313430E-04  3.762081E-04  5.000000E-01  1.342884E-04  4.187644E-04  0.000000E+00  3.506515E-02  7.036585E-02 -3.206918E-14 -1.566119E+00  0.000000E+00
  8.078190E-06  6.805963E-05  5.000000E-01  9.778777E-06  1.075039E-04  0.000000E+00  3.054421E-02  1.732886E-01 -4.113640E-14 -1.484770E+00  0.000000E+00
 -1.602820E-06 -3.836950E-05  5.000000E-01  0.000000E+00  0.000000E+00  0.000000E+00 -4.944037E-03  2.521478E-01 -5.217462E-14 -1.190870E+00  0.000000E+00
  9.141860E-06 -1.484204E-04  5.000000E-01  1.085319E-05 -1.111623E-04  0.000000E+00 -4.976282E-02  1.967994E-01 -6.396951E-14 -4.687468E-01  0.000000E+00