 Title = "ADflow Slice Data"
Variables =  "CoordinateX"  "CoordinateY"  "CoordinateZ"  "XoC"  "YoC"  "ZoC" "VelocityX" "VelocityY" "VelocityZ" "CoefPressure" "Mach" 
Zone T= "Slice_0001 None Absolute Regular z = 0.50000000"
 Nodes =          192  Elements=          184  ZONETYPE=FELINESEG
 DATAPACKING=POINT
  5.667600E-01 -1.512090E-02  5.000000E-01  5.724853E-01 -1.523486E-02  0.000000E+00  1.341167E-02  1.530172E-03  4.614514E-17  9.988484E-02  0.000000E+00
  5.873410E-01 -1.275926E-02  5.000000E-01  5.932741E-01 -1.284937E-02  0.000000E+00  1.290497E-02  1.479745E-03  3.796359E-17  1.228714E-01  0.000000E+00
  6.076580E-01 -1.043151E-02  5.000000E-01  6.137963E-01 -1.049811E-02  0.000000E+00  1.246000E-02  1.418377E-03  3.883213E-17  1.448298E-01  0.000000E+00
  6.276600E-01 -8.170143E-03  5.000000E-01  6.340003E-01 -8.213910E-03  0.000000E+00  1.207468E-02  1.350280E-03  4.106807E-17  1.651627E-01  0.000000E+00
  6.472970E-01 -5.999652E-03  5.000000E-01  6.538356E-01 -6.021499E-03  0.000000E+00  1.173964E-02  1.280411E-03  4.390265E-17  1.835055E-01  0.000000E+00
  6.665260E-01 -3.931900E-03  5.000000E-01  6.732588E-01 -3.932865E-03  0.000000E+00  1.144465E-02  1.211311E-03  4.573536E-17  2.000647E-01  0.000000E+00
  6.853050E-01 -1.976558E-03  5.000000E-01  6.922274E-01 -1.957776E-03  0.000000E+00  1.118359E-02  1.140456E-03  4.813206E-17  2.156334E-01  0.000000E+00
  7.035980E-01 -1.507671E-04  5.000000E-01  7.107052E-01 -1.135470E-04  0.000000E+00  1.094634E-02  1.065234E-03  4.599861E-17  2.305535E-01  0.000000E+00
  7.213750E-01  1.533608E-03  5.000000E-01  7.286617E-01  1.587839E-03  0.000000E+00  1.071012E-02  9.860417E-04  3.881861E-17  2.444952E-01  0.000000E+00
  7.386080E-01  3.072360E-03  5.000000E-01  7.460687E-01  3.142130E-03  0.000000E+00  1.044592E-02  9.049878E-04  3.066289E-17  2.573860E-01  0.000000E+00
  7.552750E-01  4.470643E-03  5.000000E-01  7.629040E-01  4.554534E-03  0.000000E+00  1.013561E-02  8.263016E-04  2.120061E-17  2.696573E-01  0.000000E+00
  7.713580E-01  5.741327E-03  5.000000E-01  7.791495E-01  5.838050E-03  0.000000E+00  9.791949E-03  7.517836E-04  1.083282E-17  2.818678E-01  0.000000E+00
  7.868410E-01  6.895409E-03  5.000000E-01  7.947888E-01  7.003787E-03  0.000000E+00  9.481903E-03  6.641077E-04  5.124823E-18  2.957413E-01  0.000000E+00
  8.017160E-01  7.872923E-03  5.000000E-01  8.098140E-01  7.991173E-03  0.000000E+00  9.306614E-03  5.403851E-04  1.072770E-17  3.116169E-01  0.000000E+00
  8.159740E-01  8.590492E-03  5.000000E-01  8.242160E-01  8.715989E-03  0.000000E+00  9.329741E-03  3.860581E-04  2.045792E-17  3.245277E-01  0.000000E+00
  8.296120E-01  9.030466E-03  5.000000E-01  8.379918E-01  9.160406E-03  0.000000E+00  9.555074E-03  2.187769E-04  2.727462E-17  3.296063E-01  0.000000E+00
  8.426300E-01  9.209096E-03  5.000000E-01  8.511412E-01  9.340840E-03  0.000000E+00  9.959202E-03  4.535405E-05  3.035149E-17  3.267958E-01  0.000000E+00
  8.550290E-01  9.157744E-03  5.000000E-01  8.636654E-01  9.288969E-03  0.000000E+00  1.051386E-02 -1.332155E-04  3.146925E-17  3.180811E-01  0.000000E+00
  8.668160E-01  8.914131E-03  5.000000E-01  8.755715E-01  9.042896E-03  0.000000E+00  1.119011E-02 -3.157894E-04  3.393356E-17  3.048115E-01  0.000000E+00
  8.779950E-01  8.519515E-03  5.000000E-01  8.868634E-01  8.644295E-03  0.000000E+00  1.195809E-02 -4.998116E-04  3.642610E-17  2.875475E-01  0.000000E+00
  8.885730E-01  8.013164E-03  5.000000E-01  8.975482E-01  8.132830E-03  0.000000E+00  1.278854E-02 -6.827052E-04  3.714624E-17  2.668772E-01  0.000000E+00
  8.985610E-01  7.428445E-03  5.000000E-01  9.076371E-01  7.542207E-03  0.000000E+00  1.364885E-02 -8.577214E-04  3.485998E-17  2.433221E-01  0.000000E+00
  9.079670E-01  6.799131E-03  5.000000E-01  9.171381E-01  6.906537E-03  0.000000E+00  1.449973E-02 -1.012491E-03  3.269832E-17  2.173444E-01  0.000000E+00
  9.168010E-01  6.157726E-03  5.000000E-01  9.260613E-01  6.258654E-03  0.000000E+00  1.530358E-02 -1.137870E-03  2.040834E-17  1.900016E-01  0.000000E+00
  9.168010E-01  6.157726E-03  5.000000E-01  9.260613E-01  6.258654E-03  0.000000E+00  1.530358E-02 -1.137870E-03  2.040834E-17  1.900016E-01  0.000000E+00
  9.250730E-01  5.529033E-03  5.000000E-01  9.344168E-01  5.623613E-03  0.000000E+00  1.603720E-02 -1.235089E-03  1.663712E-17  1.628184E-01  0.000000E+00
  9.327940E-01  4.927293E-03  5.000000E-01  9.422158E-01  5.015796E-03  0.000000E+00  1.670008E-02 -1.315849E-03  2.284640E-17  1.371084E-01  0.000000E+00
  9.399760E-01  4.355781E-03  5.000000E-01  9.494703E-01  4.438512E-03  0.000000E+00  1.730845E-02 -1.391690E-03  1.801323E-17  1.131401E-01  0.000000E+00
  9.466320E-01  3.815200E-03  5.000000E-01  9.561935E-01  3.892472E-03  0.000000E+00  1.788248E-02 -1.467141E-03  4.001673E-18  9.017585E-02  0.000000E+00
  9.527730E-01  3.306371E-03  5.000000E-01  9.623965E-01  3.378504E-03  0.000000E+00  1.844684E-02 -1.548697E-03 -4.134642E-17  6.767623E-02  0.000000E+00
  9.584110E-01  2.827154E-03  5.000000E-01  9.680915E-01  2.894448E-03  0.000000E+00  1.903424E-02 -1.647006E-03 -1.616872E-16  4.540886E-02  0.000000E+00
  9.635570E-01  2.374318E-03  5.000000E-01  9.732895E-01  2.437039E-03  0.000000E+00  1.967858E-02 -1.767948E-03 -4.235262E-16  2.265606E-02  0.000000E+00
  9.682220E-01  1.946793E-03  5.000000E-01  9.780016E-01  2.005196E-03  0.000000E+00  2.041199E-02 -1.912159E-03 -8.600769E-16 -1.670765E-03  0.000000E+00
  9.724140E-01  1.545859E-03  5.000000E-01  9.822359E-01  1.600213E-03  0.000000E+00  2.128250E-02 -2.087645E-03 -1.348537E-15 -2.820226E-02  0.000000E+00
  9.761430E-01  1.171440E-03  5.000000E-01  9.860026E-01  1.222013E-03  0.000000E+00  2.237223E-02 -2.311568E-03 -1.592698E-15 -5.739071E-02  0.000000E+00
  9.794160E-01  8.242704E-04  5.000000E-01  9.893086E-01  8.713373E-04  0.000000E+00  2.378319E-02 -2.597350E-03 -1.631271E-15 -9.031739E-02  0.000000E+00
  9.822400E-01  5.074293E-04  5.000000E-01  9.921611E-01  5.512965E-04  0.000000E+00  2.556631E-02 -2.947185E-03 -3.068769E-15 -1.284356E-01  0.000000E+00
  9.846200E-01  2.260650E-04  5.000000E-01  9.945652E-01  2.670907E-04  0.000000E+00  2.759056E-02 -3.347856E-03 -9.784225E-15 -1.720943E-01  0.000000E+00
  9.865620E-01 -1.453607E-05  5.000000E-01  9.965268E-01  2.405983E-05  0.000000E+00  2.940956E-02 -3.711576E-03 -2.508750E-14 -2.194031E-01  0.000000E+00
  9.880680E-01 -2.086060E-04  5.000000E-01  9.980480E-01 -1.719700E-04  0.000000E+00  2.987554E-02 -3.826692E-03 -4.747215E-14 -2.766119E-01  0.000000E+00
  9.891420E-01 -3.514239E-04  5.000000E-01  9.991328E-01 -3.162302E-04  0.000000E+00  2.812833E-02 -3.911125E-03 -7.822205E-14 -3.434962E-01  0.000000E+00
  9.897860E-01 -4.389487E-04  5.000000E-01  9.997833E-01 -4.046389E-04  0.000000E+00  3.788602E-02 -4.013257E-03 -2.507236E-13 -2.893907E-01  0.000000E+00
  9.900000E-01 -4.683023E-04  5.000000E-01  9.999995E-01 -4.342889E-04  0.000000E+00  2.618835E-02  5.267617E-03 -1.328041E-13 -5.820145E-01  0.000000E+00
  9.900000E-01 -1.843754E-04  5.000000E-01  9.999995E-01 -1.474947E-04  0.000000E+00  1.229768E-03 -7.885231E-03 -7.851267E-14 -8.088075E-01  0.000000E+00
  9.900000E-01  9.955150E-05  5.000000E-01  9.999995E-01  1.392996E-04  0.000000E+00 -4.468897E-04 -2.274864E-02 -2.642054E-13 -6.283575E-01  0.000000E+00
  9.900000E-01  3.834784E-04  5.000000E-01  9.999995E-01  4.260938E-04  0.000000E+00 -1.435989E-04 -8.862966E-03 -1.730774E-13 -6.283135E-01  0.000000E+00
  9.900000E-01  6.674053E-04  5.000000E-01  9.999995E-01  7.128880E-04  0.000000E+00  4.646593E-04 -5.229927E-03 -8.921125E-14 -6.881941E-01  0.000000E+00
  9.900000E-01  9.513321E-04  5.000000E-01  9.999995E-01  9.996822E-04  0.000000E+00  6.797341E-03 -6.632420E-03 -4.279805E-14 -6.299429E-01  0.000000E+00
  9.900000E-01  9.513321E-04  5.000000E-01  9.999995E-01  9.996822E-04  0.000000E+00  6.797341E-03 -6.632420E-03 -4.279805E-14 -6.299429E-01  0.000000E+00
  9.897890E-01  1.017904E-03  5.000000E-01  9.997864E-01  1.066926E-03  0.000000E+00  9.015770E-03 -3.469586E-03 -1.682686E-14 -5.523826E-01  0.000000E+00
  9.891540E-01  1.218674E-03  5.000000E-01  9.991450E-01  1.269724E-03  0.000000E+00  4.567780E-03 -1.351280E-03 -1.117857E-14 -5.709851E-01  0.000000E+00
  9.880950E-01  1.555408E-03  5.000000E-01  9.980753E-01  1.609858E-03  0.000000E+00  3.024797E-03 -9.609259E-04 -7.520909E-15 -5.705451E-01  0.000000E+00
  9.866100E-01  2.031333E-03  5.000000E-01  9.965753E-01  2.090590E-03  0.000000E+00  1.983759E-03 -6.497802E-04 -3.924163E-15 -5.626453E-01  0.000000E+00
  9.846960E-01  2.650662E-03  5.000000E-01  9.946419E-01  2.716174E-03  0.000000E+00  9.959038E-04 -3.234615E-04 -2.089580E-15 -5.590074E-01  0.000000E+00
  9.823490E-01  3.418251E-03  5.000000E-01  9.922712E-01  3.491515E-03  0.000000E+00  1.849764E-04 -5.918259E-05 -1.118577E-15 -5.580280E-01  0.000000E+00
  9.795670E-01  4.338749E-03  5.000000E-01  9.894611E-01  4.421308E-03  0.000000E+00 -4.278411E-04  1.427354E-04 -5.696788E-16 -5.582700E-01  0.000000E+00
  9.763420E-01  5.417935E-03  5.000000E-01  9.862036E-01  5.511392E-03  0.000000E+00 -8.716117E-04  2.932913E-04 -2.874069E-16 -5.597147E-01  0.000000E+00
  9.726710E-01  6.659543E-03  5.000000E-01  9.824955E-01  6.765540E-03  0.000000E+00 -1.170643E-03  3.977092E-04 -1.462312E-16 -5.622485E-01  0.000000E+00
  9.685460E-01  8.066753E-03  5.000000E-01  9.783288E-01  8.186961E-03  0.000000E+00 -1.342218E-03  4.594727E-04 -7.156618E-17 -5.654519E-01  0.000000E+00
  9.639600E-01  9.641707E-03  5.000000E-01  9.736965E-01  9.777820E-03  0.000000E+00 -1.402974E-03  4.831475E-04 -3.229393E-17 -5.688170E-01  0.000000E+00
  9.589060E-01  1.138655E-02  5.000000E-01  9.685915E-01  1.154029E-02  0.000000E+00 -1.373325E-03  4.750047E-04 -1.495674E-17 -5.718680E-01  0.000000E+00
  9.533750E-01  1.330247E-02  5.000000E-01  9.630046E-01  1.347555E-02  0.000000E+00 -1.279136E-03  4.433715E-04 -8.714937E-18 -5.742411E-01  0.000000E+00
  9.473580E-01  1.538821E-02  5.000000E-01  9.569269E-01  1.558236E-02  0.000000E+00 -1.150238E-03  3.983987E-04 -6.356765E-18 -5.757512E-01  0.000000E+00
  9.408450E-01  1.764045E-02  5.000000E-01  9.503481E-01  1.785734E-02  0.000000E+00 -1.016845E-03  3.507844E-04 -5.216663E-18 -5.764278E-01  0.000000E+00
  9.338260E-01  2.005389E-02  5.000000E-01  9.432582E-01  2.029516E-02  0.000000E+00 -9.056542E-04  3.100236E-04 -2.723422E-18 -5.764993E-01  0.000000E+00
  9.262910E-01  2.262009E-02  5.000000E-01  9.356471E-01  2.288727E-02  0.000000E+00 -8.372434E-04  2.831450E-04  8.359379E-19 -5.763181E-01  0.000000E+00
  9.182290E-01  2.532623E-02  5.000000E-01  9.275037E-01  2.562074E-02  0.000000E+00 -8.255184E-04  2.742305E-04  3.971345E-18 -5.762551E-01  0.000000E+00
  9.096280E-01  2.815459E-02  5.000000E-01  9.188158E-01  2.847766E-02  0.000000E+00 -8.781623E-04  2.845204E-04  4.635758E-18 -5.766707E-01  0.000000E+00
  9.004770E-01  3.108169E-02  5.000000E-01  9.095724E-01  3.143432E-02  0.000000E+00 -9.970002E-04  3.126354E-04 -1.657434E-18 -5.778799E-01  0.000000E+00
  8.907650E-01  3.407660E-02  5.000000E-01  8.997623E-01  3.445948E-02  0.000000E+00 -1.179239E-03  3.542547E-04 -1.741297E-17 -5.799680E-01  0.000000E+00
  8.804800E-01  3.709793E-02  5.000000E-01  8.893735E-01  3.751132E-02  0.000000E+00 -1.418039E-03  4.017123E-04 -3.719430E-17 -5.828354E-01  0.000000E+00
  8.696090E-01  4.008991E-02  5.000000E-01  8.783927E-01  4.053352E-02  0.000000E+00 -1.699111E-03  4.455696E-04 -7.355831E-17 -5.864172E-01  0.000000E+00
  8.696090E-01  4.008991E-02  5.000000E-01  8.783927E-01  4.053352E-02  0.000000E+00 -1.699111E-03  4.455696E-04 -7.355831E-17 -5.864172E-01  0.000000E+00
  8.581400E-01  4.298047E-02  5.000000E-01  8.668079E-01  4.345327E-02  0.000000E+00 -2.002425E-03  4.769011E-04 -1.330744E-16 -5.897241E-01  0.000000E+00
  8.460600E-01  4.568543E-02  5.000000E-01  8.546059E-01  4.618554E-02  0.000000E+00 -2.310211E-03  4.855505E-04 -1.762375E-16 -5.905556E-01  0.000000E+00
  8.333640E-01  4.812492E-02  5.000000E-01  8.417817E-01  4.864967E-02  0.000000E+00 -2.567413E-03  4.509360E-04 -1.945765E-16 -5.921095E-01  0.000000E+00
  8.200460E-01  5.022336E-02  5.000000E-01  8.283292E-01  5.076931E-02  0.000000E+00 -2.540671E-03  3.448713E-04 -2.313120E-16 -6.136452E-01  0.000000E+00
  8.061050E-01  5.191333E-02  5.000000E-01  8.142474E-01  5.247634E-02  0.000000E+00 -1.648297E-03  1.621431E-04 -2.898234E-16 -6.844017E-01  0.000000E+00
  7.915460E-01  5.316907E-02  5.000000E-01  7.995413E-01  5.374477E-02  0.000000E+00  9.922719E-04 -5.249536E-05 -3.565971E-16 -8.103976E-01  0.000000E+00
  7.763770E-01  5.402981E-02  5.000000E-01  7.842191E-01  5.461419E-02  0.000000E+00  5.991018E-03 -2.164738E-04 -3.561612E-16 -9.517139E-01  0.000000E+00
  7.606070E-01  5.456484E-02  5.000000E-01  7.682899E-01  5.515463E-02  0.000000E+00  1.260934E-02 -2.326971E-04 -2.236737E-16 -1.050191E+00  0.000000E+00
  7.442510E-01  5.478150E-02  5.000000E-01  7.517687E-01  5.537347E-02  0.000000E+00  1.845448E-02 -4.495955E-05 -3.752531E-17 -1.081601E+00  0.000000E+00
  7.273250E-01  5.469763E-02  5.000000E-01  7.346718E-01  5.528876E-02  0.000000E+00  2.145714E-02  2.562066E-04  1.398258E-16 -1.067292E+00  0.000000E+00
  7.098490E-01  5.436572E-02  5.000000E-01  7.170193E-01  5.495350E-02  0.000000E+00  2.167897E-02  4.875484E-04  2.859664E-16 -1.042299E+00  0.000000E+00
  6.918480E-01  5.388184E-02  5.000000E-01  6.988365E-01  5.446473E-02  0.000000E+00  2.053750E-02  5.378187E-04  3.410209E-16 -1.031198E+00  0.000000E+00
  6.733520E-01  5.339611E-02  5.000000E-01  6.801537E-01  5.397410E-02  0.000000E+00  1.933100E-02  3.966242E-04  2.804459E-16 -1.044709E+00  0.000000E+00
  6.543930E-01  5.310811E-02  5.000000E-01  6.610032E-01  5.368318E-02  0.000000E+00  1.875454E-02  1.294294E-04  1.588376E-16 -1.079364E+00  0.000000E+00
  6.350090E-01  5.313747E-02  5.000000E-01  6.414235E-01  5.371284E-02  0.000000E+00  1.903424E-02 -1.468032E-04  3.690601E-17 -1.119807E+00  0.000000E+00
  6.152440E-01  5.341693E-02  5.000000E-01  6.214589E-01  5.399513E-02  0.000000E+00  1.996332E-02 -3.486266E-04 -4.054349E-17 -1.151523E+00  0.000000E+00
  5.951420E-01  5.383647E-02  5.000000E-01  6.011539E-01  5.441890E-02  0.000000E+00  2.108725E-02 -4.395259E-04 -4.339449E-17 -1.167552E+00  0.000000E+00
  5.747530E-01  5.426568E-02  5.000000E-01  5.805590E-01  5.485244E-02  0.000000E+00  2.203826E-02 -3.839928E-04  2.109613E-17 -1.165433E+00  0.000000E+00
  5.541290E-01  5.455981E-02  5.000000E-01  5.597267E-01  5.514954E-02  0.000000E+00  2.264728E-02 -1.704727E-04  9.118524E-17 -1.146601E+00  0.000000E+00
  5.333260E-01  5.458122E-02  5.000000E-01  5.387136E-01  5.517118E-02  0.000000E+00  2.285310E-02  1.287728E-04  9.283805E-17 -1.118458E+00  0.000000E+00
  5.124010E-01  5.431925E-02  5.000000E-01  5.175773E-01  5.490656E-02  0.000000E+00  2.270621E-02  4.073158E-04  2.530135E-17 -1.090541E+00  0.000000E+00
  4.914140E-01  5.382398E-02  5.000000E-01  4.963783E-01  5.440628E-02  0.000000E+00  2.239020E-02  6.211516E-04 -4.778760E-17 -1.068257E+00  0.000000E+00
  4.704230E-01  5.315127E-02  5.000000E-01  4.751754E-01  5.372678E-02  0.000000E+00  2.208387E-02  7.684246E-04 -6.120018E-17 -1.053656E+00  0.000000E+00
  1.696960E-04 -4.810013E-04  5.000000E-01  1.730287E-04 -4.471162E-04  0.000000E+00 -6.436948E-02  9.282100E-02 -4.323576E-13  5.409116E-01  0.000000E+00
  8.054360E-04 -9.781858E-04  5.000000E-01  8.151890E-04 -9.493217E-04  0.000000E+00 -4.693412E-02  3.286234E-02 -1.217025E-13  1.106832E+00  0.000000E+00
  1.973980E-03 -1.585099E-03  5.000000E-01  1.995534E-03 -1.562364E-03  0.000000E+00 -2.105153E-02  1.047951E-02 -5.536017E-15  1.176614E+00  0.000000E+00
  3.614630E-03 -2.299724E-03  5.000000E-01  3.652753E-03 -2.284206E-03  0.000000E+00 -4.055469E-03  1.772907E-03  2.004769E-14  1.152925E+00  0.000000E+00
  5.721210E-03 -3.130488E-03  5.000000E-01  5.780607E-03 -3.123360E-03  0.000000E+00  5.020199E-03 -1.863736E-03  1.703801E-14  1.122580E+00  0.000000E+00
  8.297500E-03 -4.074912E-03  5.000000E-01  8.382914E-03 -4.077322E-03  0.000000E+00  9.329718E-03 -3.267923E-03  1.141352E-14  1.078246E+00  0.000000E+00
  1.136560E-02 -5.113390E-03  5.000000E-01  1.148200E-02 -5.126287E-03  0.000000E+00  1.109807E-02 -3.619103E-03  6.917815E-15  1.023816E+00  0.000000E+00
  1.493280E-02 -6.234674E-03  5.000000E-01  1.508522E-02 -6.258895E-03  0.000000E+00  1.169362E-02 -3.584650E-03  3.704975E-15  9.693049E-01  0.000000E+00
  1.899460E-02 -7.447076E-03  5.000000E-01  1.918804E-02 -7.483540E-03  0.000000E+00  1.195004E-02 -3.514724E-03  1.755016E-15  9.186117E-01  0.000000E+00
  2.354800E-02 -8.766644E-03  5.000000E-01  2.378743E-02 -8.816434E-03  0.000000E+00  1.228449E-02 -3.506767E-03  7.825333E-16  8.687302E-01  0.000000E+00
  2.860130E-02 -1.018889E-02  5.000000E-01  2.889176E-02 -1.025304E-02  0.000000E+00  1.281568E-02 -3.545769E-03  3.661519E-16  8.170146E-01  0.000000E+00
  3.416500E-02 -1.170273E-02  5.000000E-01  3.451165E-02 -1.178217E-02  0.000000E+00  1.352514E-02 -3.613180E-03  1.957342E-16  7.646889E-01  0.000000E+00
  4.024810E-02 -1.329897E-02  5.000000E-01  4.065618E-02 -1.339453E-02  0.000000E+00  1.435422E-02 -3.689795E-03  1.280639E-16  7.126642E-01  0.000000E+00
  4.686030E-02 -1.496532E-02  5.000000E-01  4.733516E-02 -1.507771E-02  0.000000E+00  1.523854E-02 -3.755778E-03  1.108263E-16  6.607246E-01  0.000000E+00
  5.401090E-02 -1.669008E-02  5.000000E-01  5.455797E-02 -1.681989E-02  0.000000E+00  1.613134E-02 -3.802734E-03  1.225537E-16  6.089388E-01  0.000000E+00
  6.170850E-02 -1.846464E-02  5.000000E-01  6.233331E-02 -1.861237E-02  0.000000E+00  1.700702E-02 -3.822340E-03  1.531389E-16  5.569347E-01  0.000000E+00
  6.996310E-02 -2.027466E-02  5.000000E-01  7.067127E-02 -2.044067E-02  0.000000E+00  1.785182E-02 -3.802089E-03  1.950213E-16  5.040088E-01  0.000000E+00
  7.878500E-02 -2.210053E-02  5.000000E-01  7.958226E-02 -2.228498E-02  0.000000E+00  1.866263E-02 -3.738366E-03  2.359070E-16  4.503587E-01  0.000000E+00
  8.818390E-02 -2.392309E-02  5.000000E-01  8.907608E-02 -2.412595E-02  0.000000E+00  1.944086E-02 -3.631260E-03  2.685386E-16  3.964189E-01  0.000000E+00
  9.816930E-02 -2.571981E-02  5.000000E-01  9.916232E-02 -2.594081E-02  0.000000E+00  2.018106E-02 -3.476119E-03  2.861672E-16  3.422498E-01  0.000000E+00
  1.087500E-01 -2.746381E-02  5.000000E-01  1.098499E-01 -2.770242E-02  0.000000E+00  2.086706E-02 -3.269462E-03  2.513474E-16  2.882737E-01  0.000000E+00
  1.199340E-01 -2.912778E-02  5.000000E-01  1.211468E-01 -2.938320E-02  0.000000E+00  2.146401E-02 -3.006273E-03  1.198350E-16  2.351944E-01  0.000000E+00
  1.317280E-01 -3.067965E-02  5.000000E-01  1.330599E-01 -3.095074E-02  0.000000E+00  2.191127E-02 -2.677718E-03  3.720522E-17  1.838603E-01  0.000000E+00
  1.441380E-01 -3.208206E-02  5.000000E-01  1.455952E-01 -3.236731E-02  0.000000E+00  2.213770E-02 -2.283763E-03 -2.371988E-18  1.360554E-01  0.000000E+00
  1.441380E-01 -3.208206E-02  5.000000E-01  1.455952E-01 -3.236731E-02  0.000000E+00  2.213770E-02 -2.283763E-03 -2.371988E-18  1.360554E-01  0.000000E+00
  1.571670E-01 -3.329855E-02  5.000000E-01  1.587558E-01 -3.359608E-02  0.000000E+00  2.209214E-02 -1.838115E-03 -2.365396E-16  9.435696E-02  0.000000E+00
  1.708170E-01 -3.429420E-02  5.000000E-01  1.725437E-01 -3.460179E-02  0.000000E+00  2.178411E-02 -1.370474E-03 -6.105649E-16  6.149746E-02  0.000000E+00
  1.850860E-01 -3.504531E-02  5.000000E-01  1.869568E-01 -3.536048E-02  0.000000E+00  2.131745E-02 -9.337982E-04 -7.900371E-16  3.982710E-02  0.000000E+00
  1.999720E-01 -3.556046E-02  5.000000E-01  2.019931E-01 -3.588084E-02  0.000000E+00  2.087274E-02 -5.963723E-04 -7.040767E-16  3.007968E-02  0.000000E+00
  2.154670E-01 -3.590525E-02  5.000000E-01  2.176446E-01 -3.622911E-02  0.000000E+00  2.059298E-02 -3.845719E-04 -5.678032E-16  2.788623E-02  0.000000E+00
  2.315610E-01 -3.614985E-02  5.000000E-01  2.339011E-01 -3.647618E-02  0.000000E+00  2.046572E-02 -2.365220E-04 -4.674634E-16  2.316904E-02  0.000000E+00
  2.482400E-01 -3.628592E-02  5.000000E-01  2.507486E-01 -3.661362E-02  0.000000E+00  2.039644E-02 -8.598586E-05 -3.979374E-16  1.044778E-02  0.000000E+00
  2.654840E-01 -3.629146E-02  5.000000E-01  2.681667E-01 -3.661922E-02  0.000000E+00  2.031806E-02  8.201883E-05 -3.252275E-16 -7.124105E-03  0.000000E+00
  2.832720E-01 -3.614101E-02  5.000000E-01  2.861343E-01 -3.646726E-02  0.000000E+00  2.019317E-02  2.651843E-04 -2.329977E-16 -2.451831E-02  0.000000E+00
  3.015770E-01 -3.581327E-02  5.000000E-01  3.046242E-01 -3.613621E-02  0.000000E+00  2.000608E-02  4.541231E-04 -1.325386E-16 -3.832654E-02  0.000000E+00
  3.203660E-01 -3.529493E-02  5.000000E-01  3.236030E-01 -3.561263E-02  0.000000E+00  1.975483E-02  6.384628E-04 -3.606515E-17 -4.739740E-02  0.000000E+00
  3.396030E-01 -3.458069E-02  5.000000E-01  3.430342E-01 -3.489117E-02  0.000000E+00  1.944279E-02  8.116527E-04  4.558150E-17 -5.207267E-02  0.000000E+00
  3.592490E-01 -3.366854E-02  5.000000E-01  3.628786E-01 -3.396981E-02  0.000000E+00  1.907290E-02  9.716640E-04  1.010305E-16 -5.312471E-02  0.000000E+00
  3.792580E-01 -3.255730E-02  5.000000E-01  3.830897E-01 -3.284735E-02  0.000000E+00  1.864811E-02  1.117236E-03  1.348284E-16 -5.093749E-02  0.000000E+00
  3.995810E-01 -3.124874E-02  5.000000E-01  4.036179E-01 -3.152557E-02  0.000000E+00  1.817235E-02  1.245992E-03  1.569630E-16 -4.542705E-02  0.000000E+00
  4.201670E-01 -2.974883E-02  5.000000E-01  4.244118E-01 -3.001052E-02  0.000000E+00  1.764850E-02  1.356239E-03  1.630632E-16 -3.650290E-02  0.000000E+00
  4.409600E-01 -2.806556E-02  5.000000E-01  4.454148E-01 -2.831025E-02  0.000000E+00  1.707897E-02  1.447420E-03  1.574877E-16 -2.428114E-02  0.000000E+00
  4.619030E-01 -2.620844E-02  5.000000E-01  4.665693E-01 -2.643437E-02  0.000000E+00  1.647145E-02  1.517607E-03  1.481953E-16 -8.851211E-03  0.000000E+00
  4.829360E-01 -2.419481E-02  5.000000E-01  4.878147E-01 -2.440041E-02  0.000000E+00  1.584028E-02  1.564274E-03  1.315024E-16  9.606597E-03  0.000000E+00
  5.039990E-01 -2.204853E-02  5.000000E-01  5.090904E-01 -2.223246E-02  0.000000E+00  1.520256E-02  1.586655E-03  1.099834E-16  3.055257E-02  0.000000E+00
  5.250310E-01 -1.979935E-02  5.000000E-01  5.303348E-01 -1.996055E-02  0.000000E+00  1.457518E-02  1.586162E-03  8.557059E-17  5.316205E-02  0.000000E+00
  5.459710E-01 -1.747970E-02  5.000000E-01  5.514863E-01 -1.761748E-02  0.000000E+00  1.397311E-02  1.566360E-03  6.349273E-17  7.649207E-02  0.000000E+00
  5.667600E-01 -1.512090E-02  5.000000E-01  5.724853E-01 -1.523486E-02  0.000000E+00  1.341167E-02  1.530172E-03  4.614514E-17  9.988484E-02  0.000000E+00
  4.704230E-01  5.315127E-02  5.000000E-01  4.751754E-01  5.372678E-02  0.000000E+00  2.208387E-02  7.684246E-04 -6.120018E-17 -1.053656E+00  0.000000E+00
  4.494880E-01  5.236177E-02  5.000000E-01  4.540289E-01  5.292931E-02  0.000000E+00  2.188916E-02  8.563066E-04 -4.349642E-17 -1.046914E+00  0.000000E+00
  4.286690E-01  5.151603E-02  5.000000E-01  4.329997E-01  5.207502E-02  0.000000E+00  2.185900E-02  9.112500E-04 -3.109568E-17 -1.045626E+00  0.000000E+00
  4.080230E-01  5.063482E-02  5.000000E-01  4.121452E-01  5.118492E-02  0.000000E+00  2.200125E-02  9.726079E-04 -1.788466E-17 -1.045761E+00  0.000000E+00
  3.876050E-01  4.970325E-02  5.000000E-01  3.915210E-01  5.024394E-02  0.000000E+00  2.225417E-02  1.058249E-03 -1.623479E-17 -1.044708E+00  0.000000E+00
  3.674690E-01  4.870800E-02  5.000000E-01  3.711816E-01  4.923864E-02  0.000000E+00  2.252968E-02  1.165206E-03 -2.381215E-17 -1.041795E+00  0.000000E+00
  3.476650E-01  4.763906E-02  5.000000E-01  3.511776E-01  4.815890E-02  0.000000E+00  2.277222E-02  1.289163E-03 -3.550798E-17 -1.037079E+00  0.000000E+00
  3.282390E-01  4.648878E-02  5.000000E-01  3.315555E-01  4.699700E-02  0.000000E+00  2.296511E-02  1.427315E-03 -4.481998E-17 -1.030914E+00  0.000000E+00
  3.092330E-01  4.525197E-02  5.000000E-01  3.123575E-01  4.574771E-02  0.000000E+00  2.311084E-02  1.574503E-03 -4.836973E-17 -1.023939E+00  0.000000E+00
  2.906860E-01  4.393163E-02  5.000000E-01  2.936232E-01  4.441403E-02  0.000000E+00  2.321907E-02  1.725616E-03 -4.722213E-17 -1.016786E+00  0.000000E+00
  2.726330E-01  4.253336E-02  5.000000E-01  2.753879E-01  4.300164E-02  0.000000E+00  2.330217E-02  1.879817E-03 -4.327393E-17 -1.009716E+00  0.000000E+00
  2.551020E-01  4.106266E-02  5.000000E-01  2.576799E-01  4.151609E-02  0.000000E+00  2.336854E-02  2.038208E-03 -3.753908E-17 -1.002731E+00  0.000000E+00
  2.381210E-01  3.952547E-02  5.000000E-01  2.405274E-01  3.996337E-02  0.000000E+00  2.342407E-02  2.204195E-03 -2.908721E-17 -9.956810E-01  0.000000E+00
  2.217090E-01  3.792397E-02  5.000000E-01  2.239496E-01  3.834571E-02  0.000000E+00  2.346855E-02  2.379002E-03 -1.571509E-17 -9.888703E-01  0.000000E+00
  2.058840E-01  3.626069E-02  5.000000E-01  2.079648E-01  3.666563E-02  0.000000E+00  2.348221E-02  2.541387E-03 -1.691445E-18 -9.845095E-01  0.000000E+00
  1.906600E-01  3.456320E-02  5.000000E-01  1.925871E-01  3.495100E-02  0.000000E+00  2.345742E-02  2.655111E-03  8.827031E-18 -9.859901E-01  0.000000E+00
  1.760460E-01  3.288190E-02  5.000000E-01  1.778255E-01  3.325271E-02  0.000000E+00  2.346108E-02  2.724881E-03  1.758574E-17 -9.938297E-01  0.000000E+00
  1.620500E-01  3.124088E-02  5.000000E-01  1.636881E-01  3.159513E-02  0.000000E+00  2.358450E-02  2.792794E-03  2.706917E-17 -1.005274E+00  0.000000E+00
  1.486750E-01  2.964235E-02  5.000000E-01  1.501781E-01  2.998045E-02  0.000000E+00  2.384851E-02  2.888484E-03  4.256251E-17 -1.017407E+00  0.000000E+00
  1.359210E-01  2.807812E-02  5.000000E-01  1.372953E-01  2.840042E-02  0.000000E+00  2.420292E-02  3.019849E-03  6.045539E-17 -1.028484E+00  0.000000E+00
  1.237890E-01  2.653937E-02  5.000000E-01  1.250407E-01  2.684613E-02  0.000000E+00  2.457722E-02  3.184266E-03  6.474153E-17 -1.037862E+00  0.000000E+00
  1.122730E-01  2.501660E-02  5.000000E-01  1.134084E-01  2.530798E-02  0.000000E+00  2.492004E-02  3.376577E-03  2.897800E-17 -1.045637E+00  0.000000E+00
  1.013710E-01  2.350414E-02  5.000000E-01  1.023964E-01  2.378025E-02  0.000000E+00  2.520859E-02  3.590295E-03 -7.429743E-17 -1.052420E+00  0.000000E+00
  9.107400E-02  2.199999E-02  5.000000E-01  9.199536E-02  2.226091E-02  0.000000E+00  2.544654E-02  3.824626E-03 -2.848180E-16 -1.058786E+00  0.000000E+00
  9.107400E-02  2.199999E-02  5.000000E-01  9.199536E-02  2.226091E-02  0.000000E+00  2.544654E-02  3.824626E-03 -2.848180E-16 -1.058786E+00  0.000000E+00
  8.137660E-02  2.050190E-02  5.000000E-01  8.220003E-02  2.074768E-02  0.000000E+00  2.564193E-02  4.077940E-03 -6.395045E-16 -1.065482E+00  0.000000E+00
  7.227050E-02  1.901228E-02  5.000000E-01  7.300197E-02  1.924303E-02  0.000000E+00  2.579917E-02  4.344304E-03 -1.268907E-15 -1.073523E+00  0.000000E+00
  6.374670E-02  1.753625E-02  5.000000E-01  6.439209E-02  1.775209E-02  0.000000E+00  2.592904E-02  4.624843E-03 -2.419302E-15 -1.083577E+00  0.000000E+00
  5.579720E-02  1.607711E-02  5.000000E-01  5.636231E-02  1.627821E-02  0.000000E+00  2.603217E-02  4.915719E-03 -4.414274E-15 -1.096553E+00  0.000000E+00
  4.841260E-02  1.464339E-02  5.000000E-01  4.890313E-02  1.483001E-02  0.000000E+00  2.610671E-02  5.211676E-03 -7.738031E-15 -1.113441E+00  0.000000E+00
  4.158390E-02  1.324291E-02  5.000000E-01  4.200547E-02  1.341539E-02  0.000000E+00  2.615781E-02  5.519165E-03 -1.298637E-14 -1.134634E+00  0.000000E+00
  3.530370E-02  1.188052E-02  5.000000E-01  3.566185E-02  1.203924E-02  0.000000E+00  2.616653E-02  5.832871E-03 -2.064565E-14 -1.160968E+00  0.000000E+00
  2.956270E-02  1.056574E-02  5.000000E-01  2.986287E-02  1.071119E-02  0.000000E+00  2.610566E-02  6.147978E-03 -3.066046E-14 -1.193110E+00  0.000000E+00
  2.435310E-02  9.305119E-03  5.000000E-01  2.460066E-02  9.437833E-03  0.000000E+00  2.593523E-02  6.476359E-03 -4.180750E-14 -1.230472E+00  0.000000E+00
  1.967110E-02  8.099133E-03  5.000000E-01  1.987137E-02  8.219668E-03  0.000000E+00  2.552073E-02  6.788621E-03 -5.126889E-14 -1.273363E+00  0.000000E+00
  1.550860E-02  6.954949E-03  5.000000E-01  1.566684E-02  7.063929E-03  0.000000E+00  2.468433E-02  7.036321E-03 -5.523883E-14 -1.322090E+00  0.000000E+00
  1.185930E-02  5.876231E-03  5.000000E-01  1.198068E-02  5.974317E-03  0.000000E+00  2.332837E-02  7.212197E-03 -5.015690E-14 -1.374805E+00  0.000000E+00
  8.724160E-03  4.859163E-03  5.000000E-01  8.813883E-03  4.946978E-03  0.000000E+00  2.157874E-02  7.343868E-03 -3.223332E-14 -1.431048E+00  0.000000E+00
  6.091130E-03  3.911940E-03  5.000000E-01  6.154263E-03  3.990189E-03  0.000000E+00  2.032369E-02  7.820661E-03  5.829676E-15 -1.486224E+00  0.000000E+00
  3.952840E-03  3.037282E-03  5.000000E-01  3.994378E-03  3.106698E-03  0.000000E+00  2.113547E-02  9.733947E-03  8.010763E-14 -1.523400E+00  0.000000E+00
  2.330070E-03  2.222405E-03  5.000000E-01  2.355220E-03  2.283592E-03  0.000000E+00  2.423875E-02  1.419530E-02  2.130363E-13 -1.531087E+00  0.000000E+00
  1.198080E-03  1.485420E-03  5.000000E-01  1.211798E-03  1.539164E-03  0.000000E+00  2.759958E-02  2.139014E-02  4.062414E-13 -1.519247E+00  0.000000E+00
  5.019560E-04  8.593887E-04  5.000000E-01  5.086442E-04  9.068103E-04  0.000000E+00  3.041167E-02  3.350380E-02  4.908604E-13 -1.530791E+00  0.000000E+00
  1.313430E-04  3.762247E-04  5.000000E-01  1.342884E-04  4.187669E-04  0.000000E+00  3.506355E-02  7.036310E-02  3.284729E-13 -1.566086E+00  0.000000E+00
  8.078190E-06  6.807404E-05  5.000000E-01  9.778777E-06  1.075042E-04  0.000000E+00  3.054282E-02  1.732848E-01  3.886962E-12 -1.484756E+00  0.000000E+00
 -1.602820E-06 -3.835535E-05  5.000000E-01  0.000000E+00  0.000000E+00  0.000000E+00 -4.944384E-03  2.521461E-01  4.222157E-12 -1.190861E+00  0.000000E+00
  9.141860E-06 -1.484063E-04  5.000000E-01  1.085319E-05 -1.111623E-04  0.000000E+00 -4.976276E-02  1.967991E-01  1.043507E-13 -4.687310E-01  0.000000E+00