 Title = "ADflow Slice Data"
Variables =  "CoordinateX"  "CoordinateY"  "CoordinateZ"  "XoC"  "YoC"  "ZoC" "VelocityX" "VelocityY" "VelocityZ" "CoefPressure" "Mach" 
Zone T= "Slice_0001 None Absolute Regular z = 0.50000000"
 Nodes =          192  Elements=          184  ZONETYPE=FELINESEG
 DATAPACKING=POINT
  5.667600E-01 -1.511052E-02  5.000000E-01  5.724853E-01 -1.522413E-02  0.000000E+00  1.340205E-02  1.529659E-03 -3.741319E-18  1.002990E-01  0.000000E+00
  5.873410E-01 -1.274881E-02  5.000000E-01  5.932741E-01 -1.283856E-02  0.000000E+00  1.289809E-02  1.478671E-03 -9.519374E-18  1.232540E-01  0.000000E+00
  6.076580E-01 -1.042205E-02  5.000000E-01  6.137963E-01 -1.048831E-02  0.000000E+00  1.245633E-02  1.417144E-03 -8.659048E-18  1.451110E-01  0.000000E+00
  6.276600E-01 -8.162300E-03  5.000000E-01  6.340003E-01 -8.205736E-03  0.000000E+00  1.207391E-02  1.349148E-03 -3.611179E-18  1.653316E-01  0.000000E+00
  6.472970E-01 -5.993607E-03  5.000000E-01  6.538356E-01 -6.015142E-03  0.000000E+00  1.174101E-02  1.279528E-03  2.551363E-18  1.835797E-01  0.000000E+00
  6.665260E-01 -3.927464E-03  5.000000E-01  6.732588E-01 -3.928133E-03  0.000000E+00  1.144728E-02  1.210728E-03  7.343065E-18  2.000712E-01  0.000000E+00
  6.853050E-01 -1.973354E-03  5.000000E-01  6.922274E-01 -1.954289E-03  0.000000E+00  1.118673E-02  1.140128E-03  8.425346E-18  2.156022E-01  0.000000E+00
  7.035980E-01 -1.484682E-04  5.000000E-01  7.107052E-01 -1.109736E-04  0.000000E+00  1.094949E-02  1.065070E-03  7.510159E-18  2.305091E-01  0.000000E+00
  7.213750E-01  1.535257E-03  5.000000E-01  7.286617E-01  1.589755E-03  0.000000E+00  1.071304E-02  9.859720E-04  6.063526E-18  2.444496E-01  0.000000E+00
  7.386080E-01  3.073548E-03  5.000000E-01  7.460687E-01  3.143581E-03  0.000000E+00  1.044849E-02  9.049680E-04  6.536728E-18  2.573430E-01  0.000000E+00
  7.552750E-01  4.471504E-03  5.000000E-01  7.629040E-01  4.555655E-03  0.000000E+00  1.013779E-02  8.263063E-04  1.013559E-17  2.696176E-01  0.000000E+00
  7.713580E-01  5.741954E-03  5.000000E-01  7.791495E-01  5.838935E-03  0.000000E+00  9.793780E-03  7.517987E-04  1.582179E-17  2.818318E-01  0.000000E+00
  7.868410E-01  6.895865E-03  5.000000E-01  7.947888E-01  7.004499E-03  0.000000E+00  9.483435E-03  6.641232E-04  1.885227E-17  2.957093E-01  0.000000E+00
  8.017160E-01  7.873254E-03  5.000000E-01  8.098140E-01  7.991759E-03  0.000000E+00  9.307909E-03  5.403924E-04  1.791767E-17  3.115888E-01  0.000000E+00
  8.159740E-01  8.590733E-03  5.000000E-01  8.242160E-01  8.716483E-03  0.000000E+00  9.330853E-03  3.860531E-04  2.083069E-17  3.245030E-01  0.000000E+00
  8.296120E-01  9.030642E-03  5.000000E-01  8.379918E-01  9.160835E-03  0.000000E+00  9.556044E-03  2.187600E-04  3.063348E-17  3.295841E-01  0.000000E+00
  8.426300E-01  9.209225E-03  5.000000E-01  8.511412E-01  9.341222E-03  0.000000E+00  9.960060E-03  4.532725E-05  3.941147E-17  3.267754E-01  0.000000E+00
  8.550290E-01  9.157840E-03  5.000000E-01  8.636654E-01  9.289317E-03  0.000000E+00  1.051463E-02 -1.332498E-04  3.907566E-17  3.180619E-01  0.000000E+00
  8.668160E-01  8.914203E-03  5.000000E-01  8.755715E-01  9.043220E-03  0.000000E+00  1.119080E-02 -3.158289E-04  3.186986E-17  3.047932E-01  0.000000E+00
  8.779950E-01  8.519569E-03  5.000000E-01  8.868634E-01  8.644601E-03  0.000000E+00  1.195873E-02 -4.998541E-04  2.624358E-17  2.875300E-01  0.000000E+00
  8.885730E-01  8.013205E-03  5.000000E-01  8.975482E-01  8.133124E-03  0.000000E+00  1.278912E-02 -6.827493E-04  2.644291E-17  2.668604E-01  0.000000E+00
  8.985610E-01  7.428477E-03  5.000000E-01  9.076371E-01  7.542491E-03  0.000000E+00  1.364938E-02 -8.577658E-04  2.478709E-17  2.433061E-01  0.000000E+00
  9.079670E-01  6.799156E-03  5.000000E-01  9.171381E-01  6.906814E-03  0.000000E+00  1.450022E-02 -1.012534E-03  1.618937E-17  2.173291E-01  0.000000E+00
  9.168010E-01  6.157746E-03  5.000000E-01  9.260613E-01  6.258926E-03  0.000000E+00  1.530403E-02 -1.137910E-03  1.549587E-17  1.899870E-01  0.000000E+00
  9.168010E-01  6.157746E-03  5.000000E-01  9.260613E-01  6.258926E-03  0.000000E+00  1.530403E-02 -1.137910E-03  1.549587E-17  1.899870E-01  0.000000E+00
  9.250730E-01  5.529049E-03  5.000000E-01  9.344168E-01  5.623881E-03  0.000000E+00  1.603760E-02 -1.235126E-03  1.267417E-17  1.628044E-01  0.000000E+00
  9.327940E-01  4.927306E-03  5.000000E-01  9.422158E-01  5.016060E-03  0.000000E+00  1.670044E-02 -1.315884E-03  9.923946E-18  1.370949E-01  0.000000E+00
  9.399760E-01  4.355792E-03  5.000000E-01  9.494703E-01  4.438774E-03  0.000000E+00  1.730878E-02 -1.391721E-03  1.675174E-17  1.131272E-01  0.000000E+00
  9.466320E-01  3.815209E-03  5.000000E-01  9.561935E-01  3.892732E-03  0.000000E+00  1.788276E-02 -1.467169E-03  2.125850E-17  9.016364E-02  0.000000E+00
  9.527730E-01  3.306378E-03  5.000000E-01  9.623965E-01  3.378763E-03  0.000000E+00  1.844710E-02 -1.548723E-03  2.629314E-17  6.766470E-02  0.000000E+00
  9.584110E-01  2.827161E-03  5.000000E-01  9.680915E-01  2.894706E-03  0.000000E+00  1.903447E-02 -1.647030E-03  2.868101E-17  4.539801E-02  0.000000E+00
  9.635570E-01  2.374323E-03  5.000000E-01  9.732895E-01  2.437295E-03  0.000000E+00  1.967878E-02 -1.767970E-03  1.684271E-17  2.264588E-02  0.000000E+00
  9.682220E-01  1.946797E-03  5.000000E-01  9.780016E-01  2.005452E-03  0.000000E+00  2.041217E-02 -1.912180E-03 -3.103724E-17 -1.680332E-03  0.000000E+00
  9.724140E-01  1.545863E-03  5.000000E-01  9.822359E-01  1.600468E-03  0.000000E+00  2.128266E-02 -2.087665E-03 -1.444149E-16 -2.821126E-02  0.000000E+00
  9.761430E-01  1.171443E-03  5.000000E-01  9.860026E-01  1.222267E-03  0.000000E+00  2.237237E-02 -2.311587E-03 -3.684915E-16 -5.739924E-02  0.000000E+00
  9.794160E-01  8.242727E-04  5.000000E-01  9.893086E-01  8.715908E-04  0.000000E+00  2.378333E-02 -2.597369E-03 -7.948221E-16 -9.032553E-02  0.000000E+00
  9.822400E-01  5.074310E-04  5.000000E-01  9.921611E-01  5.515495E-04  0.000000E+00  2.556644E-02 -2.947204E-03 -1.580885E-15 -1.284434E-01  0.000000E+00
  9.846200E-01  2.260663E-04  5.000000E-01  9.945652E-01  2.673433E-04  0.000000E+00  2.759070E-02 -3.347878E-03 -3.163446E-15 -1.721022E-01  0.000000E+00
  9.865620E-01 -1.453517E-05  5.000000E-01  9.965268E-01  2.431199E-05  0.000000E+00  2.940973E-02 -3.711603E-03 -8.139236E-15 -2.194110E-01  0.000000E+00
  9.880680E-01 -2.086054E-04  5.000000E-01  9.980480E-01 -1.717181E-04  0.000000E+00  2.987576E-02 -3.826726E-03 -2.610702E-14 -2.766201E-01  0.000000E+00
  9.891420E-01 -3.514235E-04  5.000000E-01  9.991328E-01 -3.159786E-04  0.000000E+00  2.812862E-02 -3.911169E-03 -7.901566E-14 -3.435050E-01  0.000000E+00
  9.897860E-01 -4.389484E-04  5.000000E-01  9.997833E-01 -4.043874E-04  0.000000E+00  3.788641E-02 -4.013307E-03 -1.633962E-13 -2.894010E-01  0.000000E+00
  9.900000E-01 -4.683020E-04  5.000000E-01  9.999995E-01 -4.340374E-04  0.000000E+00  2.618860E-02  5.267601E-03  1.449313E-13 -5.820258E-01  0.000000E+00
  9.900000E-01 -1.843752E-04  5.000000E-01  9.999995E-01 -1.472432E-04  0.000000E+00  1.229790E-03 -7.885279E-03  1.839437E-13 -8.088192E-01  0.000000E+00
  9.900000E-01  9.955170E-05  5.000000E-01  9.999995E-01  1.395510E-04  0.000000E+00 -4.468946E-04 -2.274871E-02 -1.206389E-13 -6.283691E-01  0.000000E+00
  9.900000E-01  3.834786E-04  5.000000E-01  9.999995E-01  4.263452E-04  0.000000E+00 -1.436025E-04 -8.862935E-03 -7.297209E-14 -6.283248E-01  0.000000E+00
  9.900000E-01  6.674054E-04  5.000000E-01  9.999995E-01  7.131394E-04  0.000000E+00  4.646644E-04 -5.229885E-03 -2.374993E-14 -6.882058E-01  0.000000E+00
  9.900000E-01  9.513323E-04  5.000000E-01  9.999995E-01  9.999336E-04  0.000000E+00  6.797425E-03 -6.632456E-03 -7.656511E-15 -6.299546E-01  0.000000E+00
  9.900000E-01  9.513323E-04  5.000000E-01  9.999995E-01  9.999336E-04  0.000000E+00  6.797425E-03 -6.632456E-03 -7.656511E-15 -6.299546E-01  0.000000E+00
  9.897890E-01  1.017904E-03  5.000000E-01  9.997864E-01  1.067178E-03  0.000000E+00  9.015899E-03 -3.469634E-03 -3.329374E-15 -5.523941E-01  0.000000E+00
  9.891540E-01  1.218674E-03  5.000000E-01  9.991450E-01  1.269975E-03  0.000000E+00  4.567888E-03 -1.351314E-03 -1.922710E-15 -5.709965E-01  0.000000E+00
  9.880950E-01  1.555408E-03  5.000000E-01  9.980753E-01  1.610110E-03  0.000000E+00  3.024914E-03 -9.609640E-04 -1.997152E-16 -5.705563E-01  0.000000E+00
  9.866100E-01  2.031334E-03  5.000000E-01  9.965753E-01  2.090842E-03  0.000000E+00  1.983888E-03 -6.498220E-04  1.369913E-16 -5.626563E-01  0.000000E+00
  9.846960E-01  2.650664E-03  5.000000E-01  9.946419E-01  2.716426E-03  0.000000E+00  9.960387E-04 -3.235055E-04  8.647413E-17 -5.590183E-01  0.000000E+00
  9.823490E-01  3.418253E-03  5.000000E-01  9.922712E-01  3.491768E-03  0.000000E+00  1.851109E-04 -5.922678E-05  7.433006E-17 -5.580385E-01  0.000000E+00
  9.795670E-01  4.338751E-03  5.000000E-01  9.894611E-01  4.421561E-03  0.000000E+00 -4.277176E-04  1.426945E-04  5.581790E-17 -5.582801E-01  0.000000E+00
  9.763420E-01  5.417937E-03  5.000000E-01  9.862036E-01  5.511646E-03  0.000000E+00 -8.715112E-04  2.932577E-04  2.481476E-17 -5.597245E-01  0.000000E+00
  9.726710E-01  6.659547E-03  5.000000E-01  9.824955E-01  6.765795E-03  0.000000E+00 -1.170577E-03  3.976871E-04  3.127186E-18 -5.622580E-01  0.000000E+00
  9.685460E-01  8.066757E-03  5.000000E-01  9.783288E-01  8.187216E-03  0.000000E+00 -1.342195E-03  4.594649E-04 -4.116802E-18 -5.654613E-01  0.000000E+00
  9.639600E-01  9.641712E-03  5.000000E-01  9.736965E-01  9.778076E-03  0.000000E+00 -1.402995E-03  4.831552E-04 -4.017736E-18 -5.688265E-01  0.000000E+00
  9.589060E-01  1.138656E-02  5.000000E-01  9.685915E-01  1.154054E-02  0.000000E+00 -1.373387E-03  4.750264E-04 -3.174664E-18 -5.718777E-01  0.000000E+00
  9.533750E-01  1.330248E-02  5.000000E-01  9.630046E-01  1.347581E-02  0.000000E+00 -1.279226E-03  4.434033E-04 -2.621137E-18 -5.742512E-01  0.000000E+00
  9.473580E-01  1.538822E-02  5.000000E-01  9.569269E-01  1.558262E-02  0.000000E+00 -1.150341E-03  3.984346E-04 -1.878007E-18 -5.757617E-01  0.000000E+00
  9.408450E-01  1.764046E-02  5.000000E-01  9.503481E-01  1.785761E-02  0.000000E+00 -1.016940E-03  3.508177E-04  5.615721E-19 -5.764388E-01  0.000000E+00
  9.338260E-01  2.005391E-02  5.000000E-01  9.432582E-01  2.029542E-02  0.000000E+00 -9.057228E-04  3.100476E-04  3.685607E-18 -5.765105E-01  0.000000E+00
  9.262910E-01  2.262011E-02  5.000000E-01  9.356471E-01  2.288754E-02  0.000000E+00 -8.372693E-04  2.831543E-04  7.635462E-18 -5.763294E-01  0.000000E+00
  9.182290E-01  2.532625E-02  5.000000E-01  9.275037E-01  2.562101E-02  0.000000E+00 -8.254894E-04  2.742216E-04  1.174796E-17 -5.762661E-01  0.000000E+00
  9.096280E-01  2.815462E-02  5.000000E-01  9.188158E-01  2.847794E-02  0.000000E+00 -8.780718E-04  2.844919E-04  1.194237E-17 -5.766812E-01  0.000000E+00
  9.004770E-01  3.108173E-02  5.000000E-01  9.095724E-01  3.143462E-02  0.000000E+00 -9.968477E-04  3.125886E-04  1.301492E-17 -5.778898E-01  0.000000E+00
  8.907650E-01  3.407666E-02  5.000000E-01  8.997623E-01  3.445979E-02  0.000000E+00 -1.179031E-03  3.541944E-04  1.456681E-17 -5.799772E-01  0.000000E+00
  8.804800E-01  3.709801E-02  5.000000E-01  8.893735E-01  3.751165E-02  0.000000E+00 -1.417791E-03  4.016462E-04 -8.889763E-18 -5.828437E-01  0.000000E+00
  8.696090E-01  4.009001E-02  5.000000E-01  8.783927E-01  4.053387E-02  0.000000E+00 -1.698846E-03  4.455040E-04 -3.229863E-17 -5.864245E-01  0.000000E+00
  8.696090E-01  4.009001E-02  5.000000E-01  8.783927E-01  4.053387E-02  0.000000E+00 -1.698846E-03  4.455040E-04 -3.229863E-17 -5.864245E-01  0.000000E+00
  8.581400E-01  4.298061E-02  5.000000E-01  8.668079E-01  4.345366E-02  0.000000E+00 -2.002165E-03  4.768412E-04 -6.903281E-17 -5.897328E-01  0.000000E+00
  8.460600E-01  4.568563E-02  5.000000E-01  8.546059E-01  4.618599E-02  0.000000E+00 -2.309971E-03  4.855107E-04 -6.273517E-17 -5.905679E-01  0.000000E+00
  8.333640E-01  4.812520E-02  5.000000E-01  8.417817E-01  4.865020E-02  0.000000E+00 -2.567299E-03  4.509477E-04  6.166475E-18 -5.921148E-01  0.000000E+00
  8.200460E-01  5.022376E-02  5.000000E-01  8.283292E-01  5.076996E-02  0.000000E+00 -2.541109E-03  3.449726E-04 -1.965237E-17 -6.136115E-01  0.000000E+00
  8.061050E-01  5.191389E-02  5.000000E-01  8.142474E-01  5.247715E-02  0.000000E+00 -1.650205E-03  1.623430E-04 -1.007225E-16 -6.843011E-01  0.000000E+00
  7.915460E-01  5.316987E-02  5.000000E-01  7.995413E-01  5.374582E-02  0.000000E+00  9.877100E-04 -5.224805E-05 -6.725775E-17 -8.102516E-01  0.000000E+00
  7.763770E-01  5.403093E-02  5.000000E-01  7.842191E-01  5.461557E-02  0.000000E+00  5.983573E-03 -2.163371E-04  3.074963E-17 -9.515930E-01  0.000000E+00
  7.606070E-01  5.456640E-02  5.000000E-01  7.682899E-01  5.515646E-02  0.000000E+00  1.260106E-02 -2.328950E-04  2.607288E-17 -1.050155E+00  0.000000E+00
  7.442510E-01  5.478362E-02  5.000000E-01  7.517687E-01  5.537587E-02  0.000000E+00  1.844864E-02 -4.558941E-05 -4.163581E-17 -1.081655E+00  0.000000E+00
  7.273250E-01  5.470044E-02  5.000000E-01  7.346718E-01  5.529185E-02  0.000000E+00  2.145542E-02  2.552879E-04 -4.704303E-17 -1.067406E+00  0.000000E+00
  7.098490E-01  5.436932E-02  5.000000E-01  7.170193E-01  5.495738E-02  0.000000E+00  2.168056E-02  4.865748E-04  7.297358E-19 -1.042442E+00  0.000000E+00
  6.918480E-01  5.388630E-02  5.000000E-01  6.988365E-01  5.446948E-02  0.000000E+00  2.054080E-02  5.369193E-04  3.184972E-17 -1.031351E+00  0.000000E+00
  6.733520E-01  5.340146E-02  5.000000E-01  6.801537E-01  5.397975E-02  0.000000E+00  1.933496E-02  3.958199E-04  3.246897E-17 -1.044855E+00  0.000000E+00
  6.543930E-01  5.311428E-02  5.000000E-01  6.610032E-01  5.368967E-02  0.000000E+00  1.875868E-02  1.287197E-04  2.087373E-17 -1.079491E+00  0.000000E+00
  6.350090E-01  5.314432E-02  5.000000E-01  6.414235E-01  5.372002E-02  0.000000E+00  1.903837E-02 -1.473691E-04  9.155222E-18 -1.119901E+00  0.000000E+00
  6.152440E-01  5.342421E-02  5.000000E-01  6.214589E-01  5.400273E-02  0.000000E+00  1.996726E-02 -3.489324E-04  8.995866E-19 -1.151572E+00  0.000000E+00
  5.951420E-01  5.384381E-02  5.000000E-01  6.011539E-01  5.442657E-02  0.000000E+00  2.109074E-02 -4.394123E-04 -3.603067E-18 -1.167544E+00  0.000000E+00
  5.747530E-01  5.427261E-02  5.000000E-01  5.805590E-01  5.485970E-02  0.000000E+00  2.204106E-02 -3.832947E-04 -1.683992E-18 -1.165359E+00  0.000000E+00
  5.541290E-01  5.456577E-02  5.000000E-01  5.597267E-01  5.515582E-02  0.000000E+00  2.264915E-02 -1.690818E-04  3.289209E-18 -1.146452E+00  0.000000E+00
  5.333260E-01  5.458559E-02  5.000000E-01  5.387136E-01  5.517584E-02  0.000000E+00  2.285374E-02  1.307817E-04  9.695297E-19 -1.118238E+00  0.000000E+00
  5.124010E-01  5.432154E-02  5.000000E-01  5.175773E-01  5.490912E-02  0.000000E+00  2.270530E-02  4.096763E-04 -7.853162E-18 -1.090269E+00  0.000000E+00
  4.914140E-01  5.382395E-02  5.000000E-01  4.963783E-01  5.440650E-02  0.000000E+00  2.238767E-02  6.235646E-04 -1.116921E-17 -1.067962E+00  0.000000E+00
  4.704230E-01  5.314889E-02  5.000000E-01  4.751754E-01  5.372463E-02  0.000000E+00  2.207991E-02  7.706450E-04 -8.937328E-18 -1.053366E+00  0.000000E+00
  1.696960E-04 -4.812944E-04  5.000000E-01  1.730287E-04 -4.471610E-04  0.000000E+00 -6.436598E-02  9.283063E-02 -7.499035E-13  5.406816E-01  0.000000E+00
  8.054360E-04 -9.786407E-04  5.000000E-01  8.151890E-04 -9.495300E-04  0.000000E+00 -4.693648E-02  3.287539E-02 -3.398101E-13  1.106682E+00  0.000000E+00
  1.973980E-03 -1.585852E-03  5.000000E-01  1.995534E-03 -1.562874E-03  0.000000E+00 -2.105816E-02  1.048807E-02 -9.879461E-14  1.176587E+00  0.000000E+00
  3.614630E-03 -2.300899E-03  5.000000E-01  3.652753E-03 -2.285142E-03  0.000000E+00 -4.062788E-03  1.776999E-03 -2.408462E-14  1.152971E+00  0.000000E+00
  5.721210E-03 -3.132210E-03  5.000000E-01  5.780607E-03 -3.124847E-03  0.000000E+00  5.013607E-03 -1.862532E-03 -6.574287E-15  1.122665E+00  0.000000E+00
  8.297500E-03 -4.077305E-03  5.000000E-01  8.382914E-03 -4.079488E-03  0.000000E+00  9.324069E-03 -3.268362E-03 -1.910682E-15  1.078355E+00  0.000000E+00
  1.136560E-02 -5.116586E-03  5.000000E-01  1.148200E-02 -5.129264E-03  0.000000E+00  1.109331E-02 -3.620449E-03 -4.447135E-16  1.023941E+00  0.000000E+00
  1.493280E-02 -6.238805E-03  5.000000E-01  1.508522E-02 -6.262816E-03  0.000000E+00  1.168961E-02 -3.586480E-03 -3.003283E-16  9.694353E-01  0.000000E+00
  1.899460E-02 -7.452271E-03  5.000000E-01  1.918804E-02 -7.488536E-03  0.000000E+00  1.194659E-02 -3.516836E-03 -4.225522E-16  9.187391E-01  0.000000E+00
  2.354800E-02 -8.773030E-03  5.000000E-01  2.378743E-02 -8.822633E-03  0.000000E+00  1.228148E-02 -3.509111E-03 -3.974531E-16  8.688493E-01  0.000000E+00
  2.860130E-02 -1.019659E-02  5.000000E-01  2.889176E-02 -1.026057E-02  0.000000E+00  1.281309E-02 -3.548375E-03 -2.488336E-16  8.171212E-01  0.000000E+00
  3.416500E-02 -1.171187E-02  5.000000E-01  3.451165E-02 -1.179115E-02  0.000000E+00  1.352306E-02 -3.616098E-03 -9.717710E-17  7.647785E-01  0.000000E+00
  4.024810E-02 -1.330966E-02  5.000000E-01  4.065618E-02 -1.340508E-02  0.000000E+00  1.435281E-02 -3.693065E-03  4.991724E-19  7.127313E-01  0.000000E+00
  4.686030E-02 -1.497767E-02  5.000000E-01  4.733516E-02 -1.508994E-02  0.000000E+00  1.523794E-02 -3.759419E-03  5.310122E-17  6.607634E-01  0.000000E+00
  5.401090E-02 -1.670420E-02  5.000000E-01  5.455797E-02 -1.683390E-02  0.000000E+00  1.613172E-02 -3.806739E-03  8.526320E-17  6.089432E-01  0.000000E+00
  6.170850E-02 -1.848060E-02  5.000000E-01  6.233331E-02 -1.862824E-02  0.000000E+00  1.700851E-02 -3.826681E-03  1.127797E-16  5.568979E-01  0.000000E+00
  6.996310E-02 -2.029254E-02  5.000000E-01  7.067127E-02 -2.045848E-02  0.000000E+00  1.785457E-02 -3.806720E-03  1.440293E-16  5.039232E-01  0.000000E+00
  7.878500E-02 -2.212036E-02  5.000000E-01  7.958226E-02 -2.230476E-02  0.000000E+00  1.866679E-02 -3.743224E-03  1.767630E-16  4.502153E-01  0.000000E+00
  8.818390E-02 -2.394490E-02  5.000000E-01  8.907608E-02 -2.414772E-02  0.000000E+00  1.944662E-02 -3.636269E-03  2.058857E-16  3.962075E-01  0.000000E+00
  9.816930E-02 -2.574357E-02  5.000000E-01  9.916232E-02 -2.596456E-02  0.000000E+00  2.018865E-02 -3.481178E-03  2.355870E-16  3.419588E-01  0.000000E+00
  1.087500E-01 -2.748945E-02  5.000000E-01  1.098499E-01 -2.772807E-02  0.000000E+00  2.087675E-02 -3.274441E-03  2.469168E-16  2.878898E-01  0.000000E+00
  1.199340E-01 -2.915515E-02  5.000000E-01  1.211468E-01 -2.941059E-02  0.000000E+00  2.147608E-02 -3.010993E-03  1.588400E-16  2.347037E-01  0.000000E+00
  1.317280E-01 -3.070853E-02  5.000000E-01  1.330599E-01 -3.097966E-02  0.000000E+00  2.192591E-02 -2.681930E-03  8.874887E-18  1.832489E-01  0.000000E+00
  1.441380E-01 -3.211211E-02  5.000000E-01  1.455952E-01 -3.239741E-02  0.000000E+00  2.215484E-02 -2.287137E-03  5.480119E-17  1.353130E-01  0.000000E+00
  1.441380E-01 -3.211211E-02  5.000000E-01  1.455952E-01 -3.239741E-02  0.000000E+00  2.215484E-02 -2.287137E-03  5.480119E-17  1.353130E-01  0.000000E+00
  1.571670E-01 -3.332927E-02  5.000000E-01  1.587558E-01 -3.362687E-02  0.000000E+00  2.211122E-02 -1.840260E-03 -7.561123E-17  9.348137E-02  0.000000E+00
  1.708170E-01 -3.432491E-02  5.000000E-01  1.725437E-01 -3.463256E-02  0.000000E+00  2.180391E-02 -1.370984E-03 -1.931214E-16  6.050211E-02  0.000000E+00
  1.850860E-01 -3.507506E-02  5.000000E-01  1.869568E-01 -3.539028E-02  0.000000E+00  2.133605E-02 -9.323375E-04  4.927347E-18  3.875004E-02  0.000000E+00
  1.999720E-01 -3.558801E-02  5.000000E-01  2.019931E-01 -3.590841E-02  0.000000E+00  2.088768E-02 -5.927368E-04  7.485899E-17  2.898792E-02  0.000000E+00
  2.154670E-01 -3.592902E-02  5.000000E-01  2.176446E-01 -3.625287E-02  0.000000E+00  2.060148E-02 -3.787211E-04  4.097350E-17  2.687482E-02  0.000000E+00
  2.315610E-01 -3.616811E-02  5.000000E-01  2.339011E-01 -3.649437E-02  0.000000E+00  2.046503E-02 -2.286696E-04 -1.914610E-17  2.235411E-02  0.000000E+00
  2.482400E-01 -3.629706E-02  5.000000E-01  2.507486E-01 -3.662463E-02  0.000000E+00  2.038435E-02 -7.669532E-05 -5.972700E-17  9.949882E-03  0.000000E+00
  2.654840E-01 -3.629428E-02  5.000000E-01  2.681667E-01 -3.662182E-02  0.000000E+00  2.029391E-02  9.179894E-05 -7.221042E-17 -7.196980E-03  0.000000E+00
  2.832720E-01 -3.613504E-02  5.000000E-01  2.861343E-01 -3.646097E-02  0.000000E+00  2.015906E-02  2.741559E-04 -6.961966E-17 -2.409004E-02  0.000000E+00
  3.015770E-01 -3.579919E-02  5.000000E-01  3.046242E-01 -3.612173E-02  0.000000E+00  1.996747E-02  4.607931E-04 -5.964002E-17 -3.738700E-02  0.000000E+00
  3.203660E-01 -3.527495E-02  5.000000E-01  3.236030E-01 -3.559220E-02  0.000000E+00  1.971968E-02  6.414625E-04 -4.783235E-17 -4.603991E-02  0.000000E+00
  3.396030E-01 -3.455876E-02  5.000000E-01  3.430342E-01 -3.486877E-02  0.000000E+00  1.941876E-02  8.106023E-04 -4.127967E-17 -5.054044E-02  0.000000E+00
  3.592490E-01 -3.364891E-02  5.000000E-01  3.628786E-01 -3.394974E-02  0.000000E+00  1.906425E-02  9.676906E-04 -3.867556E-17 -5.177633E-02  0.000000E+00
  3.792580E-01 -3.254294E-02  5.000000E-01  3.830897E-01 -3.283259E-02  0.000000E+00  1.865475E-02  1.112145E-03 -3.610796E-17 -5.007483E-02  0.000000E+00
  3.995810E-01 -3.124107E-02  5.000000E-01  4.036179E-01 -3.151758E-02  0.000000E+00  1.819046E-02  1.241406E-03 -3.346971E-17 -4.516966E-02  0.000000E+00
  4.201670E-01 -2.974759E-02  5.000000E-01  4.244118E-01 -3.000901E-02  0.000000E+00  1.767160E-02  1.353410E-03 -3.089594E-17 -3.679495E-02  0.000000E+00
  4.409600E-01 -2.806863E-02  5.000000E-01  4.454148E-01 -2.831309E-02  0.000000E+00  1.709991E-02  1.447000E-03 -2.593019E-17 -2.493731E-02  0.000000E+00
  4.619030E-01 -2.621238E-02  5.000000E-01  4.665693E-01 -2.643810E-02  0.000000E+00  1.648510E-02  1.519188E-03 -1.516559E-17 -9.587954E-03  0.000000E+00
  4.829360E-01 -2.419687E-02  5.000000E-01  4.878147E-01 -2.440223E-02  0.000000E+00  1.584487E-02  1.566734E-03 -3.782045E-18  9.061171E-03  0.000000E+00
  5.039990E-01 -2.204708E-02  5.000000E-01  5.090904E-01 -2.223073E-02  0.000000E+00  1.519905E-02  1.588998E-03  3.308472E-18  3.033060E-02  0.000000E+00
  5.250310E-01 -1.979392E-02  5.000000E-01  5.303348E-01 -1.995482E-02  0.000000E+00  1.456633E-02  1.587733E-03  7.041036E-18  5.325506E-02  0.000000E+00
  5.459710E-01 -1.747097E-02  5.000000E-01  5.514863E-01 -1.760842E-02  0.000000E+00  1.396240E-02  1.566835E-03  4.330408E-18  7.681088E-02  0.000000E+00
  5.667600E-01 -1.511052E-02  5.000000E-01  5.724853E-01 -1.522413E-02  0.000000E+00  1.340205E-02  1.529659E-03 -3.741319E-18  1.002990E-01  0.000000E+00
  4.704230E-01  5.314889E-02  5.000000E-01  4.751754E-01  5.372463E-02  0.000000E+00  2.207991E-02  7.706450E-04 -8.937328E-18 -1.053366E+00  0.000000E+00
  4.494880E-01  5.235725E-02  5.000000E-01  4.540289E-01  5.292499E-02  0.000000E+00  2.188417E-02  8.581465E-04 -7.510968E-18 -1.046660E+00  0.000000E+00
  4.286690E-01  5.150976E-02  5.000000E-01  4.329997E-01  5.206895E-02  0.000000E+00  2.185356E-02  9.125963E-04 -7.287444E-18 -1.045430E+00  0.000000E+00
  4.080230E-01  5.062732E-02  5.000000E-01  4.121452E-01  5.117759E-02  0.000000E+00  2.199601E-02  9.734207E-04 -8.493872E-18 -1.045637E+00  0.000000E+00
  3.876050E-01  4.969504E-02  5.000000E-01  3.915210E-01  5.023590E-02  0.000000E+00  2.224967E-02  1.058504E-03 -1.015889E-17 -1.044663E+00  0.000000E+00
  3.674690E-01  4.869963E-02  5.000000E-01  3.711816E-01  4.923044E-02  0.000000E+00  2.252628E-02  1.164864E-03 -1.083269E-17 -1.041836E+00  0.000000E+00
  3.476650E-01  4.763112E-02  5.000000E-01  3.511776E-01  4.815114E-02  0.000000E+00  2.277018E-02  1.288192E-03 -1.006210E-17 -1.037208E+00  0.000000E+00
  3.282390E-01  4.648186E-02  5.000000E-01  3.315555E-01  4.699027E-02  0.000000E+00  2.296468E-02  1.425779E-03 -1.131766E-17 -1.031123E+00  0.000000E+00
  3.092330E-01  4.524656E-02  5.000000E-01  3.123575E-01  4.574250E-02  0.000000E+00  2.311236E-02  1.572729E-03 -1.700302E-17 -1.024194E+00  0.000000E+00
  2.906860E-01  4.392778E-02  5.000000E-01  2.936232E-01  4.441040E-02  0.000000E+00  2.322263E-02  1.724106E-03 -2.321354E-17 -1.017033E+00  0.000000E+00
  2.726330E-01  4.253076E-02  5.000000E-01  2.753879E-01  4.299927E-02  0.000000E+00  2.330720E-02  1.878979E-03 -2.674364E-17 -1.009904E+00  0.000000E+00
  2.551020E-01  4.106073E-02  5.000000E-01  2.576799E-01  4.151439E-02  0.000000E+00  2.337395E-02  2.038272E-03 -2.741887E-17 -1.002816E+00  0.000000E+00
  2.381210E-01  3.952349E-02  5.000000E-01  2.405274E-01  3.996162E-02  0.000000E+00  2.342864E-02  2.205237E-03 -2.601780E-17 -9.956388E-01  0.000000E+00
  2.217090E-01  3.792119E-02  5.000000E-01  2.239496E-01  3.834315E-02  0.000000E+00  2.347124E-02  2.380980E-03 -2.274673E-17 -9.886928E-01  0.000000E+00
  2.058840E-01  3.625638E-02  5.000000E-01  2.079648E-01  3.666153E-02  0.000000E+00  2.348220E-02  2.544034E-03 -1.837126E-17 -9.842177E-01  0.000000E+00
  1.906600E-01  3.455691E-02  5.000000E-01  1.925871E-01  3.494488E-02  0.000000E+00  2.345416E-02  2.657858E-03 -1.901442E-17 -9.856396E-01  0.000000E+00
  1.760460E-01  3.287360E-02  5.000000E-01  1.778255E-01  3.324458E-02  0.000000E+00  2.345473E-02  2.727181E-03 -2.921416E-17 -9.934872E-01  0.000000E+00
  1.620500E-01  3.123087E-02  5.000000E-01  1.636881E-01  3.158526E-02  0.000000E+00  2.357606E-02  2.794414E-03 -4.848019E-17 -1.004988E+00  0.000000E+00
  1.486750E-01  2.963101E-02  5.000000E-01  1.501781E-01  2.996925E-02  0.000000E+00  2.383927E-02  2.889405E-03 -7.705853E-17 -1.017206E+00  0.000000E+00
  1.359210E-01  2.806587E-02  5.000000E-01  1.372953E-01  2.838829E-02  0.000000E+00  2.419392E-02  3.020122E-03 -1.170663E-16 -1.028377E+00  0.000000E+00
  1.237890E-01  2.652659E-02  5.000000E-01  1.250407E-01  2.683347E-02  0.000000E+00  2.456901E-02  3.183939E-03 -1.757289E-16 -1.037847E+00  0.000000E+00
  1.122730E-01  2.500363E-02  5.000000E-01  1.134084E-01  2.529513E-02  0.000000E+00  2.491269E-02  3.375676E-03 -2.674327E-16 -1.045709E+00  0.000000E+00
  1.013710E-01  2.349127E-02  5.000000E-01  1.023964E-01  2.376750E-02  0.000000E+00  2.520197E-02  3.588835E-03 -4.095726E-16 -1.052572E+00  0.000000E+00
  9.107400E-02  2.198744E-02  5.000000E-01  9.199536E-02  2.224849E-02  0.000000E+00  2.544045E-02  3.822625E-03 -6.432115E-16 -1.059011E+00  0.000000E+00
  9.107400E-02  2.198744E-02  5.000000E-01  9.199536E-02  2.224849E-02  0.000000E+00  2.544045E-02  3.822625E-03 -6.432115E-16 -1.059011E+00  0.000000E+00
  8.137660E-02  2.048987E-02  5.000000E-01  8.220003E-02  2.073578E-02  0.000000E+00  2.563623E-02  4.075418E-03 -1.026437E-15 -1.065773E+00  0.000000E+00
  7.227050E-02  1.900091E-02  5.000000E-01  7.300197E-02  1.923180E-02  0.000000E+00  2.579375E-02  4.341290E-03 -1.661200E-15 -1.073873E+00  0.000000E+00
  6.374670E-02  1.752565E-02  5.000000E-01  6.439209E-02  1.774163E-02  0.000000E+00  2.592384E-02  4.621367E-03 -2.746934E-15 -1.083981E+00  0.000000E+00
  5.579720E-02  1.606735E-02  5.000000E-01  5.636231E-02  1.626861E-02  0.000000E+00  2.602713E-02  4.911807E-03 -4.593880E-15 -1.097007E+00  0.000000E+00
  4.841260E-02  1.463453E-02  5.000000E-01  4.890313E-02  1.482132E-02  0.000000E+00  2.610173E-02  5.207343E-03 -7.674577E-15 -1.113939E+00  0.000000E+00
  4.158390E-02  1.323497E-02  5.000000E-01  4.200547E-02  1.340762E-02  0.000000E+00  2.615278E-02  5.514413E-03 -1.261984E-14 -1.135170E+00  0.000000E+00
  3.530370E-02  1.187350E-02  5.000000E-01  3.566185E-02  1.203241E-02  0.000000E+00  2.616125E-02  5.827685E-03 -2.006527E-14 -1.161538E+00  0.000000E+00
  2.956270E-02  1.055964E-02  5.000000E-01  2.986287E-02  1.070528E-02  0.000000E+00  2.609989E-02  6.142322E-03 -3.030877E-14 -1.193708E+00  0.000000E+00
  2.435310E-02  9.299904E-03  5.000000E-01  2.460066E-02  9.432816E-03  0.000000E+00  2.592860E-02  6.470159E-03 -4.267340E-14 -1.231093E+00  0.000000E+00
  1.967110E-02  8.094761E-03  5.000000E-01  1.987137E-02  8.215503E-03  0.000000E+00  2.551275E-02  6.781773E-03 -5.476538E-14 -1.274003E+00  0.000000E+00
  1.550860E-02  6.951367E-03  5.000000E-01  1.566684E-02  7.060562E-03  0.000000E+00  2.467447E-02  7.028706E-03 -6.255699E-14 -1.322743E+00  0.000000E+00
  1.185930E-02  5.873374E-03  5.000000E-01  1.198068E-02  5.971682E-03  0.000000E+00  2.331641E-02  7.203740E-03 -6.209504E-14 -1.375465E+00  0.000000E+00
  8.724160E-03  4.856955E-03  5.000000E-01  8.813883E-03  4.944999E-03  0.000000E+00  2.156543E-02  7.334763E-03 -5.252165E-14 -1.431708E+00  0.000000E+00
  6.091130E-03  3.910298E-03  5.000000E-01  6.154263E-03  3.988781E-03  0.000000E+00  2.031142E-02  7.811569E-03 -3.827023E-14 -1.486872E+00  0.000000E+00
  3.952840E-03  3.036115E-03  5.000000E-01  3.994378E-03  3.105770E-03  0.000000E+00  2.112785E-02  9.725910E-03 -2.334138E-14 -1.524030E+00  0.000000E+00
  2.330070E-03  2.221607E-03  5.000000E-01  2.355220E-03  2.283037E-03  0.000000E+00  2.423825E-02  1.418969E-02 -1.683881E-14 -1.531704E+00  0.000000E+00
  1.198080E-03  1.484886E-03  5.000000E-01  1.211798E-03  1.538876E-03  0.000000E+00  2.760598E-02  2.138873E-02 -6.607709E-14 -1.519860E+00  0.000000E+00
  5.019560E-04  8.590198E-04  5.000000E-01  5.086442E-04  9.066889E-04  0.000000E+00  3.042497E-02  3.351252E-02 -4.535101E-14 -1.531375E+00  0.000000E+00
  1.313430E-04  3.759446E-04  5.000000E-01  1.342884E-04  4.187352E-04  0.000000E+00  3.508485E-02  7.040036E-02  1.652854E-12 -1.566526E+00  0.000000E+00
  8.078190E-06  6.782329E-05  5.000000E-01  9.778777E-06  1.075022E-04  0.000000E+00  3.056179E-02  1.733351E-01  4.768149E-12 -1.484922E+00  0.000000E+00
 -1.602820E-06 -3.860409E-05  5.000000E-01  0.000000E+00  0.000000E+00  0.000000E+00 -4.939077E-03  2.521649E-01  2.017369E-12 -1.190944E+00  0.000000E+00
  9.141860E-06 -1.486581E-04  5.000000E-01  1.085319E-05 -1.111654E-04  0.000000E+00 -4.976065E-02  1.967989E-01 -1.599515E-12 -4.689276E-01  0.000000E+00