 Title = "ADflow Slice Data"
Variables =  "CoordinateX"  "CoordinateY"  "CoordinateZ"  "XoC"  "YoC"  "ZoC" "VelocityX" "VelocityY" "VelocityZ" "CoefPressure" "Mach" 
Zone T= "Slice_0001 None Absolute Regular z = 0.50000000"
 Nodes =          192  Elements=          184  ZONETYPE=FELINESEG
 DATAPACKING=POINT
  5.667600E-01 -1.509377E-02  5.000000E-01  5.724853E-01 -1.520742E-02  0.000000E+00  1.340611E-02  1.527808E-03 -5.326330E-20  1.005125E-01  0.000000E+00
  5.873410E-01 -1.273557E-02  5.000000E-01  5.932741E-01 -1.282540E-02  0.000000E+00  1.290477E-02  1.477290E-03 -7.379141E-19  1.233451E-01  0.000000E+00
  6.076580E-01 -1.041210E-02  5.000000E-01  6.137963E-01 -1.047846E-02  0.000000E+00  1.246458E-02  1.416168E-03 -5.160781E-19  1.451129E-01  0.000000E+00
  6.276600E-01 -8.155261E-03  5.000000E-01  6.340003E-01 -8.198836E-03  0.000000E+00  1.208286E-02  1.348517E-03  2.838420E-20  1.652650E-01  0.000000E+00
  6.472970E-01 -5.989001E-03  5.000000E-01  6.538356E-01 -6.010700E-03  0.000000E+00  1.174990E-02  1.279201E-03 -5.169491E-19  1.834619E-01  0.000000E+00
  6.665260E-01 -3.924709E-03  5.000000E-01  6.732588E-01 -3.925560E-03  0.000000E+00  1.145551E-02  1.210663E-03 -4.698229E-19  1.999221E-01  0.000000E+00
  6.853050E-01 -1.971852E-03  5.000000E-01  6.922274E-01 -1.952981E-03  0.000000E+00  1.119394E-02  1.140250E-03  3.416414E-19  2.154454E-01  0.000000E+00
  7.035980E-01 -1.477436E-04  5.000000E-01  7.107052E-01 -1.104518E-04  0.000000E+00  1.095554E-02  1.065292E-03  5.154632E-19  2.303640E-01  0.000000E+00
  7.213750E-01  1.535546E-03  5.000000E-01  7.286617E-01  1.589837E-03  0.000000E+00  1.071793E-02  9.862275E-04 -3.342357E-19  2.443250E-01  0.000000E+00
  7.386080E-01  3.073626E-03  5.000000E-01  7.460687E-01  3.143451E-03  0.000000E+00  1.045234E-02  9.052149E-04 -7.030643E-19  2.572401E-01  0.000000E+00
  7.552750E-01  4.471504E-03  5.000000E-01  7.629040E-01  4.555445E-03  0.000000E+00  1.014078E-02  8.265217E-04 -4.757857E-19  2.695339E-01  0.000000E+00
  7.713580E-01  5.741939E-03  5.000000E-01  7.791495E-01  5.838710E-03  0.000000E+00  9.796084E-03  7.519723E-04  4.067979E-19  2.817645E-01  0.000000E+00
  7.868410E-01  6.895853E-03  5.000000E-01  7.947888E-01  7.004277E-03  0.000000E+00  9.485239E-03  6.642520E-04  1.070124E-18  2.956555E-01  0.000000E+00
  8.017160E-01  7.873243E-03  5.000000E-01  8.098140E-01  7.991538E-03  0.000000E+00  9.309373E-03  5.404792E-04  1.565692E-19  3.115453E-01  0.000000E+00
  8.159740E-01  8.590722E-03  5.000000E-01  8.242160E-01  8.716263E-03  0.000000E+00  9.332094E-03  3.861052E-04 -5.595739E-19  3.244666E-01  0.000000E+00
  8.296120E-01  9.030631E-03  5.000000E-01  8.379918E-01  9.160614E-03  0.000000E+00  9.557139E-03  2.187855E-04 -3.046472E-19  3.295525E-01  0.000000E+00
  8.426300E-01  9.209215E-03  5.000000E-01  8.511412E-01  9.341001E-03  0.000000E+00  9.961058E-03  4.533204E-05  9.600691E-20  3.267467E-01  0.000000E+00
  8.550290E-01  9.157829E-03  5.000000E-01  8.636654E-01  9.289097E-03  0.000000E+00  1.051556E-02 -1.332614E-04  2.630402E-20  3.180353E-01  0.000000E+00
  8.668160E-01  8.914192E-03  5.000000E-01  8.755715E-01  9.042999E-03  0.000000E+00  1.119167E-02 -3.158532E-04  5.697317E-19  3.047683E-01  0.000000E+00
  8.779950E-01  8.519558E-03  5.000000E-01  8.868634E-01  8.644380E-03  0.000000E+00  1.195956E-02 -4.998884E-04  1.584937E-18  2.875064E-01  0.000000E+00
  8.885730E-01  8.013195E-03  5.000000E-01  8.975482E-01  8.132903E-03  0.000000E+00  1.278991E-02 -6.827909E-04  1.344243E-18  2.668380E-01  0.000000E+00
  8.985610E-01  7.428467E-03  5.000000E-01  9.076371E-01  7.542270E-03  0.000000E+00  1.365013E-02 -8.578122E-04  1.109733E-18  2.432847E-01  0.000000E+00
  9.079670E-01  6.799146E-03  5.000000E-01  9.171381E-01  6.906593E-03  0.000000E+00  1.450092E-02 -1.012583E-03  2.019147E-18  2.173083E-01  0.000000E+00
  9.168010E-01  6.157736E-03  5.000000E-01  9.260613E-01  6.258706E-03  0.000000E+00  1.530468E-02 -1.137958E-03  1.718054E-18  1.899667E-01  0.000000E+00
  9.168010E-01  6.157736E-03  5.000000E-01  9.260613E-01  6.258706E-03  0.000000E+00  1.530468E-02 -1.137958E-03  1.718054E-18  1.899667E-01  0.000000E+00
  9.250730E-01  5.529040E-03  5.000000E-01  9.344168E-01  5.623661E-03  0.000000E+00  1.603821E-02 -1.235172E-03  2.424756E-18  1.627846E-01  0.000000E+00
  9.327940E-01  4.927298E-03  5.000000E-01  9.422158E-01  5.015842E-03  0.000000E+00  1.670100E-02 -1.315926E-03  3.594148E-18  1.370759E-01  0.000000E+00
  9.399760E-01  4.355784E-03  5.000000E-01  9.494703E-01  4.438556E-03  0.000000E+00  1.730928E-02 -1.391760E-03  2.047302E-18  1.131092E-01  0.000000E+00
  9.466320E-01  3.815202E-03  5.000000E-01  9.561935E-01  3.892515E-03  0.000000E+00  1.788322E-02 -1.467204E-03  7.393966E-19  9.014678E-02  0.000000E+00
  9.527730E-01  3.306372E-03  5.000000E-01  9.623965E-01  3.378547E-03  0.000000E+00  1.844750E-02 -1.548754E-03 -5.239447E-19  6.764914E-02  0.000000E+00
  9.584110E-01  2.827155E-03  5.000000E-01  9.680915E-01  2.894490E-03  0.000000E+00  1.903482E-02 -1.647057E-03 -1.574853E-18  4.538378E-02  0.000000E+00
  9.635570E-01  2.374319E-03  5.000000E-01  9.732895E-01  2.437080E-03  0.000000E+00  1.967909E-02 -1.767995E-03  3.430998E-18  2.263294E-02  0.000000E+00
  9.682220E-01  1.946793E-03  5.000000E-01  9.780016E-01  2.005238E-03  0.000000E+00  2.041243E-02 -1.912201E-03  1.638695E-17 -1.692087E-03  0.000000E+00
  9.724140E-01  1.545859E-03  5.000000E-01  9.822359E-01  1.600254E-03  0.000000E+00  2.128288E-02 -2.087683E-03  1.770090E-17 -2.822199E-02  0.000000E+00
  9.761430E-01  1.171440E-03  5.000000E-01  9.860026E-01  1.222054E-03  0.000000E+00  2.237256E-02 -2.311603E-03 -4.023827E-17 -5.740912E-02  0.000000E+00
  9.794160E-01  8.242704E-04  5.000000E-01  9.893086E-01  8.713785E-04  0.000000E+00  2.378350E-02 -2.597383E-03 -1.804778E-16 -9.033477E-02  0.000000E+00
  9.822400E-01  5.074293E-04  5.000000E-01  9.921611E-01  5.513377E-04  0.000000E+00  2.556661E-02 -2.947219E-03 -2.406251E-16 -1.284523E-01  0.000000E+00
  9.846200E-01  2.260650E-04  5.000000E-01  9.945652E-01  2.671319E-04  0.000000E+00  2.759089E-02 -3.347895E-03  2.590637E-16 -1.721109E-01  0.000000E+00
  9.865620E-01 -1.453607E-05  5.000000E-01  9.965268E-01  2.410102E-05  0.000000E+00  2.940995E-02 -3.711626E-03  1.734924E-15 -2.194199E-01  0.000000E+00
  9.880680E-01 -2.086060E-04  5.000000E-01  9.980480E-01 -1.719288E-04  0.000000E+00  2.987605E-02 -3.826759E-03  2.987045E-15 -2.766293E-01  0.000000E+00
  9.891420E-01 -3.514239E-04  5.000000E-01  9.991328E-01 -3.161890E-04  0.000000E+00  2.812900E-02 -3.911216E-03 -1.122827E-15 -3.435149E-01  0.000000E+00
  9.897860E-01 -4.389487E-04  5.000000E-01  9.997833E-01 -4.045977E-04  0.000000E+00  3.788692E-02 -4.013353E-03 -1.698366E-14 -2.894128E-01  0.000000E+00
  9.900000E-01 -4.683023E-04  5.000000E-01  9.999995E-01 -4.342477E-04  0.000000E+00  2.618892E-02  5.267582E-03 -1.526755E-14 -5.820390E-01  0.000000E+00
  9.900000E-01 -1.843754E-04  5.000000E-01  9.999995E-01 -1.474535E-04  0.000000E+00  1.229817E-03 -7.885361E-03  6.758346E-17 -8.088328E-01  0.000000E+00
  9.900000E-01  9.955150E-05  5.000000E-01  9.999995E-01  1.393407E-04  0.000000E+00 -4.469016E-04 -2.274888E-02  3.183051E-15 -6.283828E-01  0.000000E+00
  9.900000E-01  3.834784E-04  5.000000E-01  9.999995E-01  4.261350E-04  0.000000E+00 -1.436045E-04 -8.863078E-03  4.319939E-15 -6.283380E-01  0.000000E+00
  9.900000E-01  6.674053E-04  5.000000E-01  9.999995E-01  7.129292E-04  0.000000E+00  4.646675E-04 -5.229988E-03  4.020593E-15 -6.882185E-01  0.000000E+00
  9.900000E-01  9.513321E-04  5.000000E-01  9.999995E-01  9.997234E-04  0.000000E+00  6.797452E-03 -6.632506E-03  3.412954E-15 -6.299674E-01  0.000000E+00
  9.900000E-01  9.513321E-04  5.000000E-01  9.999995E-01  9.997234E-04  0.000000E+00  6.797452E-03 -6.632506E-03  3.412954E-15 -6.299674E-01  0.000000E+00
  9.897890E-01  1.017904E-03  5.000000E-01  9.997864E-01  1.066967E-03  0.000000E+00  9.015921E-03 -3.469641E-03  2.771442E-15 -5.524068E-01  0.000000E+00
  9.891540E-01  1.218674E-03  5.000000E-01  9.991450E-01  1.269765E-03  0.000000E+00  4.567854E-03 -1.351303E-03  1.834690E-15 -5.710089E-01  0.000000E+00
  9.880950E-01  1.555408E-03  5.000000E-01  9.980753E-01  1.609899E-03  0.000000E+00  3.024832E-03 -9.609368E-04  1.037418E-15 -5.705688E-01  0.000000E+00
  9.866100E-01  2.031333E-03  5.000000E-01  9.965753E-01  2.090631E-03  0.000000E+00  1.983770E-03 -6.497835E-04  5.153595E-16 -5.626689E-01  0.000000E+00
  9.846960E-01  2.650662E-03  5.000000E-01  9.946419E-01  2.716215E-03  0.000000E+00  9.958977E-04 -3.234594E-04  2.245918E-16 -5.590310E-01  0.000000E+00
  9.823490E-01  3.418251E-03  5.000000E-01  9.922712E-01  3.491556E-03  0.000000E+00  1.849580E-04 -5.917636E-05  7.712244E-17 -5.580515E-01  0.000000E+00
  9.795670E-01  4.338749E-03  5.000000E-01  9.894611E-01  4.421349E-03  0.000000E+00 -4.278718E-04  1.427458E-04  7.937642E-18 -5.582935E-01  0.000000E+00
  9.763420E-01  5.417935E-03  5.000000E-01  9.862036E-01  5.511434E-03  0.000000E+00 -8.716564E-04  2.933065E-04 -1.690233E-17 -5.597383E-01  0.000000E+00
  9.726710E-01  6.659544E-03  5.000000E-01  9.824955E-01  6.765581E-03  0.000000E+00 -1.170705E-03  3.977304E-04 -1.798615E-17 -5.622722E-01  0.000000E+00
  9.685460E-01  8.066753E-03  5.000000E-01  9.783288E-01  8.187002E-03  0.000000E+00 -1.342300E-03  4.595010E-04 -1.145445E-17 -5.654759E-01  0.000000E+00
  9.639600E-01  9.641707E-03  5.000000E-01  9.736965E-01  9.777862E-03  0.000000E+00 -1.403078E-03  4.831836E-04 -5.482169E-18 -5.688414E-01  0.000000E+00
  9.589060E-01  1.138655E-02  5.000000E-01  9.685915E-01  1.154033E-02  0.000000E+00 -1.373451E-03  4.750486E-04 -1.703921E-18 -5.718929E-01  0.000000E+00
  9.533750E-01  1.330247E-02  5.000000E-01  9.630046E-01  1.347560E-02  0.000000E+00 -1.279282E-03  4.434226E-04 -7.611862E-19 -5.742665E-01  0.000000E+00
  9.473580E-01  1.538822E-02  5.000000E-01  9.569269E-01  1.558240E-02  0.000000E+00 -1.150400E-03  3.984551E-04 -1.033689E-18 -5.757772E-01  0.000000E+00
  9.408450E-01  1.764046E-02  5.000000E-01  9.503481E-01  1.785739E-02  0.000000E+00 -1.017017E-03  3.508439E-04 -1.283210E-18 -5.764542E-01  0.000000E+00
  9.338260E-01  2.005390E-02  5.000000E-01  9.432582E-01  2.029520E-02  0.000000E+00 -9.058266E-04  3.100830E-04 -1.781083E-18 -5.765259E-01  0.000000E+00
  9.262910E-01  2.262010E-02  5.000000E-01  9.356471E-01  2.288732E-02  0.000000E+00 -8.374041E-04  2.831998E-04 -1.119351E-18 -5.763448E-01  0.000000E+00
  9.182290E-01  2.532624E-02  5.000000E-01  9.275037E-01  2.562079E-02  0.000000E+00 -8.256495E-04  2.742746E-04 -3.455289E-19 -5.762815E-01  0.000000E+00
  9.096280E-01  2.815461E-02  5.000000E-01  9.188158E-01  2.847772E-02  0.000000E+00 -8.782405E-04  2.845465E-04 -4.732442E-19 -5.766966E-01  0.000000E+00
  9.004770E-01  3.108172E-02  5.000000E-01  9.095724E-01  3.143440E-02  0.000000E+00 -9.969991E-04  3.126361E-04 -6.987645E-19 -5.779051E-01  0.000000E+00
  8.907650E-01  3.407665E-02  5.000000E-01  8.997623E-01  3.445957E-02  0.000000E+00 -1.179135E-03  3.542257E-04 -3.936881E-19 -5.799923E-01  0.000000E+00
  8.804800E-01  3.709800E-02  5.000000E-01  8.893735E-01  3.751143E-02  0.000000E+00 -1.417821E-03  4.016553E-04 -3.301159E-19 -5.828586E-01  0.000000E+00
  8.696090E-01  4.009000E-02  5.000000E-01  8.783927E-01  4.053365E-02  0.000000E+00 -1.698789E-03  4.454900E-04  4.336066E-19 -5.864389E-01  0.000000E+00
  8.696090E-01  4.009000E-02  5.000000E-01  8.783927E-01  4.053365E-02  0.000000E+00 -1.698789E-03  4.454900E-04  4.336066E-19 -5.864389E-01  0.000000E+00
  8.581400E-01  4.298060E-02  5.000000E-01  8.668079E-01  4.345344E-02  0.000000E+00 -2.002024E-03  4.768082E-04  3.167821E-19 -5.897465E-01  0.000000E+00
  8.460600E-01  4.568562E-02  5.000000E-01  8.546059E-01  4.618577E-02  0.000000E+00 -2.309757E-03  4.854647E-04 -2.143106E-18 -5.905825E-01  0.000000E+00
  8.333640E-01  4.812519E-02  5.000000E-01  8.417817E-01  4.864999E-02  0.000000E+00 -2.567025E-03  4.508979E-04 -1.964851E-18 -5.921320E-01  0.000000E+00
  8.200460E-01  5.022375E-02  5.000000E-01  8.283292E-01  5.076974E-02  0.000000E+00 -2.540813E-03  3.449331E-04 -1.405128E-18 -6.136284E-01  0.000000E+00
  8.061050E-01  5.191388E-02  5.000000E-01  8.142474E-01  5.247693E-02  0.000000E+00 -1.650043E-03  1.623289E-04 -4.775354E-19 -6.843071E-01  0.000000E+00
  7.915460E-01  5.316986E-02  5.000000E-01  7.995413E-01  5.374560E-02  0.000000E+00  9.874026E-04 -5.222851E-05  2.211939E-18 -8.102373E-01  0.000000E+00
  7.763770E-01  5.403091E-02  5.000000E-01  7.842191E-01  5.461534E-02  0.000000E+00  5.982421E-03 -2.162938E-04  9.640716E-19 -9.515627E-01  0.000000E+00
  7.606070E-01  5.456639E-02  5.000000E-01  7.682899E-01  5.515623E-02  0.000000E+00  1.259902E-02 -2.328768E-04 -2.023533E-18 -1.050126E+00  0.000000E+00
  7.442510E-01  5.478365E-02  5.000000E-01  7.517687E-01  5.537569E-02  0.000000E+00  1.844618E-02 -4.569679E-05 -5.641244E-18 -1.081644E+00  0.000000E+00
  7.273250E-01  5.470062E-02  5.000000E-01  7.346718E-01  5.529182E-02  0.000000E+00  2.145306E-02  2.549391E-04 -1.082247E-17 -1.067425E+00  0.000000E+00
  7.098490E-01  5.436986E-02  5.000000E-01  7.170193E-01  5.495772E-02  0.000000E+00  2.167847E-02  4.858999E-04 -1.335403E-17 -1.042503E+00  0.000000E+00
  6.918480E-01  5.388751E-02  5.000000E-01  6.988365E-01  5.447050E-02  0.000000E+00  2.053903E-02  5.358604E-04 -1.286265E-17 -1.031470E+00  0.000000E+00
  6.733520E-01  5.340380E-02  5.000000E-01  6.801537E-01  5.398190E-02  0.000000E+00  1.933369E-02  3.943194E-04 -1.093064E-17 -1.045047E+00  0.000000E+00
  6.543930E-01  5.311836E-02  5.000000E-01  6.610032E-01  5.369358E-02  0.000000E+00  1.875837E-02  1.267351E-04 -8.183896E-18 -1.079753E+00  0.000000E+00
  6.350090E-01  5.315073E-02  5.000000E-01  6.414235E-01  5.372627E-02  0.000000E+00  1.903963E-02 -1.497948E-04 -5.428473E-18 -1.120211E+00  0.000000E+00
  6.152440E-01  5.343326E-02  5.000000E-01  6.214589E-01  5.401165E-02  0.000000E+00  1.997034E-02 -3.516188E-04 -4.139481E-18 -1.151891E+00  0.000000E+00
  5.951420E-01  5.385547E-02  5.000000E-01  6.011539E-01  5.443814E-02  0.000000E+00  2.109527E-02 -4.420100E-04 -4.412347E-18 -1.167827E+00  0.000000E+00
  5.747530E-01  5.428648E-02  5.000000E-01  5.805590E-01  5.487350E-02  0.000000E+00  2.204629E-02 -3.852959E-04 -5.059645E-18 -1.165558E+00  0.000000E+00
  5.541290E-01  5.458103E-02  5.000000E-01  5.597267E-01  5.517102E-02  0.000000E+00  2.265428E-02 -1.699754E-04 -5.699275E-18 -1.146529E+00  0.000000E+00
  5.333260E-01  5.460104E-02  5.000000E-01  5.387136E-01  5.519124E-02  0.000000E+00  2.285783E-02  1.311208E-04 -6.160797E-18 -1.118183E+00  0.000000E+00
  5.124010E-01  5.433619E-02  5.000000E-01  5.175773E-01  5.492371E-02  0.000000E+00  2.270749E-02  4.108511E-04 -6.297352E-18 -1.090114E+00  0.000000E+00
  4.914140E-01  5.383727E-02  5.000000E-01  4.963783E-01  5.441975E-02  0.000000E+00  2.238770E-02  6.249781E-04 -6.147285E-18 -1.067763E+00  0.000000E+00
  4.704230E-01  5.316087E-02  5.000000E-01  4.751754E-01  5.373652E-02  0.000000E+00  2.207824E-02  7.717266E-04 -6.290121E-18 -1.053192E+00  0.000000E+00
  1.696960E-04 -4.810503E-04  5.000000E-01  1.730287E-04 -4.471245E-04  0.000000E+00 -6.436900E-02  9.282286E-02 -6.642005E-14  5.408652E-01  0.000000E+00
  8.054360E-04 -9.782636E-04  5.000000E-01  8.151890E-04 -9.493591E-04  0.000000E+00 -4.693481E-02  3.286485E-02 -5.143371E-14  1.106802E+00  0.000000E+00
  1.973980E-03 -1.585231E-03  5.000000E-01  1.995534E-03 -1.562456E-03  0.000000E+00 -2.105300E-02  1.048121E-02 -2.835761E-14  1.176609E+00  0.000000E+00
  3.614630E-03 -2.299936E-03  5.000000E-01  3.652753E-03 -2.284379E-03  0.000000E+00 -4.057088E-03  1.773776E-03 -9.865489E-15  1.152935E+00  0.000000E+00
  5.721210E-03 -3.130808E-03  5.000000E-01  5.780607E-03 -3.123642E-03  0.000000E+00  5.018680E-03 -1.863426E-03 -2.533820E-16  1.122599E+00  0.000000E+00
  8.297500E-03 -4.075371E-03  5.000000E-01  8.382914E-03 -4.077744E-03  0.000000E+00  9.328331E-03 -3.267949E-03  2.360188E-15  1.078272E+00  0.000000E+00
  1.136560E-02 -5.114022E-03  5.000000E-01  1.148200E-02 -5.126884E-03  0.000000E+00  1.109680E-02 -3.619328E-03  1.820972E-15  1.023848E+00  0.000000E+00
  1.493280E-02 -6.235516E-03  5.000000E-01  1.508522E-02 -6.259704E-03  0.000000E+00  1.169245E-02 -3.584993E-03  7.442720E-16  9.693395E-01  0.000000E+00
  1.899460E-02 -7.448166E-03  5.000000E-01  1.918804E-02 -7.484601E-03  0.000000E+00  1.194893E-02 -3.515145E-03  8.997451E-17  9.186479E-01  0.000000E+00
  2.354800E-02 -8.768025E-03  5.000000E-01  2.378743E-02 -8.817789E-03  0.000000E+00  1.228342E-02 -3.507260E-03 -1.130459E-16  8.687667E-01  0.000000E+00
  2.860130E-02 -1.019061E-02  5.000000E-01  2.889176E-02 -1.025474E-02  0.000000E+00  1.281465E-02 -3.546348E-03 -9.795808E-17  8.170505E-01  0.000000E+00
  3.416500E-02 -1.170482E-02  5.000000E-01  3.451165E-02 -1.178425E-02  0.000000E+00  1.352418E-02 -3.613865E-03 -4.053315E-17  7.647231E-01  0.000000E+00
  4.024810E-02 -1.330150E-02  5.000000E-01  4.065618E-02 -1.339704E-02  0.000000E+00  1.435339E-02 -3.690608E-03 -4.893019E-18  7.126953E-01  0.000000E+00
  4.686030E-02 -1.496832E-02  5.000000E-01  4.733516E-02 -1.508070E-02  0.000000E+00  1.523788E-02 -3.756735E-03  5.617298E-18  6.607509E-01  0.000000E+00
  5.401090E-02 -1.669362E-02  5.000000E-01  5.455797E-02 -1.682343E-02  0.000000E+00  1.613091E-02 -3.803845E-03  5.599647E-18  6.089587E-01  0.000000E+00
  6.170850E-02 -1.846876E-02  5.000000E-01  6.233331E-02 -1.861649E-02  0.000000E+00  1.700687E-02 -3.823610E-03  4.232261E-18  5.569460E-01  0.000000E+00
  6.996310E-02 -2.027943E-02  5.000000E-01  7.067127E-02 -2.044544E-02  0.000000E+00  1.785200E-02 -3.803518E-03  4.330070E-18  5.040090E-01  0.000000E+00
  7.878500E-02 -2.210598E-02  5.000000E-01  7.958226E-02 -2.229045E-02  0.000000E+00  1.866320E-02 -3.739953E-03  1.919220E-18  4.503445E-01  0.000000E+00
  8.818390E-02 -2.392929E-02  5.000000E-01  8.907608E-02 -2.413217E-02  0.000000E+00  1.944191E-02 -3.633002E-03 -3.030475E-19  3.963865E-01  0.000000E+00
  9.816930E-02 -2.572681E-02  5.000000E-01  9.916232E-02 -2.594784E-02  0.000000E+00  2.018271E-02 -3.478010E-03  1.739065E-18  3.421942E-01  0.000000E+00
  1.087500E-01 -2.747165E-02  5.000000E-01  1.098499E-01 -2.771030E-02  0.000000E+00  2.086948E-02 -3.271488E-03  1.768508E-18  2.881885E-01  0.000000E+00
  1.199340E-01 -2.913650E-02  5.000000E-01  1.211468E-01 -2.939196E-02  0.000000E+00  2.146741E-02 -3.008406E-03  9.259765E-20  2.350720E-01  0.000000E+00
  1.317280E-01 -3.068926E-02  5.000000E-01  1.330599E-01 -3.096041E-02  0.000000E+00  2.191590E-02 -2.679900E-03 -4.486873E-19  1.836912E-01  0.000000E+00
  1.441380E-01 -3.209257E-02  5.000000E-01  1.455952E-01 -3.237788E-02  0.000000E+00  2.214375E-02 -2.285894E-03 -6.033417E-20  1.358292E-01  0.000000E+00
  1.441380E-01 -3.209257E-02  5.000000E-01  1.455952E-01 -3.237788E-02  0.000000E+00  2.214375E-02 -2.285894E-03 -6.033417E-20  1.358292E-01  0.000000E+00
  1.571670E-01 -3.330990E-02  5.000000E-01  1.587558E-01 -3.360751E-02  0.000000E+00  2.209968E-02 -1.840043E-03  5.201930E-19  9.406319E-02  0.000000E+00
  1.708170E-01 -3.430628E-02  5.000000E-01  1.725437E-01 -3.461395E-02  0.000000E+00  2.179295E-02 -1.372005E-03 -5.685505E-19  6.112853E-02  0.000000E+00
  1.850860E-01 -3.505791E-02  5.000000E-01  1.869568E-01 -3.537317E-02  0.000000E+00  2.132709E-02 -9.347201E-04  7.266016E-19  3.938306E-02  0.000000E+00
  1.999720E-01 -3.557322E-02  5.000000E-01  2.019931E-01 -3.589368E-02  0.000000E+00  2.088241E-02 -5.964965E-04  2.150368E-18  2.957182E-02  0.000000E+00
  2.154670E-01 -3.591761E-02  5.000000E-01  2.176446E-01 -3.624155E-02  0.000000E+00  2.060174E-02 -3.837674E-04  1.298938E-18  2.733962E-02  0.000000E+00
  2.315610E-01 -3.616109E-02  5.000000E-01  2.339011E-01 -3.648749E-02  0.000000E+00  2.047261E-02 -2.347533E-04 -1.605816E-19  2.262186E-02  0.000000E+00
  2.482400E-01 -3.629529E-02  5.000000E-01  2.507486E-01 -3.662305E-02  0.000000E+00  2.040054E-02 -8.332264E-05 -1.922780E-18  9.943013E-03  0.000000E+00
  2.654840E-01 -3.629822E-02  5.000000E-01  2.681667E-01 -3.662601E-02  0.000000E+00  2.031871E-02  8.540061E-05 -1.975540E-18 -7.545768E-03  0.000000E+00
  2.832720E-01 -3.614453E-02  5.000000E-01  2.861343E-01 -3.647077E-02  0.000000E+00  2.019025E-02  2.689932E-04 -3.734820E-19 -2.482005E-02  0.000000E+00
  3.015770E-01 -3.581313E-02  5.000000E-01  3.046242E-01 -3.613602E-02  0.000000E+00  2.000021E-02  4.579696E-04  1.073523E-18 -3.848046E-02  0.000000E+00
  3.203660E-01 -3.529105E-02  5.000000E-01  3.236030E-01 -3.560866E-02  0.000000E+00  1.974730E-02  6.419249E-04  2.009085E-19 -4.739408E-02  0.000000E+00
  3.396030E-01 -3.457342E-02  5.000000E-01  3.430342E-01 -3.488379E-02  0.000000E+00  1.943499E-02  8.144748E-04 -1.264984E-18 -5.193597E-02  0.000000E+00
  3.592490E-01 -3.365840E-02  5.000000E-01  3.628786E-01 -3.395953E-02  0.000000E+00  1.906563E-02  9.738919E-04 -1.007556E-18 -5.290960E-02  0.000000E+00
  3.792580E-01 -3.254466E-02  5.000000E-01  3.830897E-01 -3.283454E-02  0.000000E+00  1.864141E-02  1.119060E-03 -5.402349E-19 -5.069594E-02  0.000000E+00
  3.995810E-01 -3.123379E-02  5.000000E-01  4.036179E-01 -3.151043E-02  0.000000E+00  1.816556E-02  1.247578E-03 -9.754861E-19 -4.518101E-02  0.000000E+00
  4.201670E-01 -2.973157E-02  5.000000E-01  4.244118E-01 -2.999304E-02  0.000000E+00  1.764053E-02  1.357697E-03 -8.538715E-19 -3.624468E-02  0.000000E+00
  4.409600E-01 -2.804575E-02  5.000000E-01  4.454148E-01 -2.829019E-02  0.000000E+00  1.706874E-02  1.448765E-03 -1.419613E-18 -2.398205E-02  0.000000E+00
  4.619030E-01 -2.618573E-02  5.000000E-01  4.665693E-01 -2.641139E-02  0.000000E+00  1.645856E-02  1.518660E-03 -8.676011E-20 -8.466919E-03  0.000000E+00
  4.829360E-01 -2.416925E-02  5.000000E-01  4.878147E-01 -2.437455E-02  0.000000E+00  1.582533E-02  1.564751E-03  2.756479E-18  1.011123E-02  0.000000E+00
  5.039990E-01 -2.202064E-02  5.000000E-01  5.090904E-01 -2.220424E-02  0.000000E+00  1.518703E-02  1.586370E-03  2.244844E-18  3.117353E-02  0.000000E+00
  5.250310E-01 -1.977012E-02  5.000000E-01  5.303348E-01 -1.993099E-02  0.000000E+00  1.456109E-02  1.585057E-03 -3.437892E-19  5.385679E-02  0.000000E+00
  5.459710E-01 -1.745061E-02  5.000000E-01  5.514863E-01 -1.758806E-02  0.000000E+00  1.396256E-02  1.564494E-03 -8.420716E-19  7.719496E-02  0.000000E+00
  5.667600E-01 -1.509377E-02  5.000000E-01  5.724853E-01 -1.520742E-02  0.000000E+00  1.340611E-02  1.527808E-03 -5.326330E-20  1.005125E-01  0.000000E+00
  4.704230E-01  5.316087E-02  5.000000E-01  4.751754E-01  5.373652E-02  0.000000E+00  2.207824E-02  7.717266E-04 -6.290121E-18 -1.053192E+00  0.000000E+00
  4.494880E-01  5.236837E-02  5.000000E-01  4.540289E-01  5.293602E-02  0.000000E+00  2.188174E-02  8.584215E-04 -7.138309E-18 -1.046573E+00  0.000000E+00
  4.286690E-01  5.152101E-02  5.000000E-01  4.329997E-01  5.208010E-02  0.000000E+00  2.185180E-02  9.119261E-04 -8.627357E-18 -1.045458E+00  0.000000E+00
  4.080230E-01  5.063959E-02  5.000000E-01  4.121452E-01  5.118978E-02  0.000000E+00  2.199643E-02  9.721738E-04 -1.013776E-17 -1.045749E+00  0.000000E+00
  3.876050E-01  4.970868E-02  5.000000E-01  3.915210E-01  5.024946E-02  0.000000E+00  2.225293E-02  1.057298E-03 -1.145202E-17 -1.044792E+00  0.000000E+00
  3.674690E-01  4.871441E-02  5.000000E-01  3.711816E-01  4.924515E-02  0.000000E+00  2.253180E-02  1.164309E-03 -1.194427E-17 -1.041903E+00  0.000000E+00
  3.476650E-01  4.764629E-02  5.000000E-01  3.511776E-01  4.816625E-02  0.000000E+00  2.277657E-02  1.288833E-03 -1.201739E-17 -1.037139E+00  0.000000E+00
  3.282390E-01  4.649621E-02  5.000000E-01  3.315555E-01  4.700455E-02  0.000000E+00  2.297012E-02  1.427906E-03 -1.243990E-17 -1.030874E+00  0.000000E+00
  3.092330E-01  4.525874E-02  5.000000E-01  3.123575E-01  4.575459E-02  0.000000E+00  2.311484E-02  1.575957E-03 -1.279416E-17 -1.023789E+00  0.000000E+00
  2.906860E-01  4.393712E-02  5.000000E-01  2.936232E-01  4.441962E-02  0.000000E+00  2.322085E-02  1.727537E-03 -1.318194E-17 -1.016555E+00  0.000000E+00
  2.726330E-01  4.253729E-02  5.000000E-01  2.753879E-01  4.300565E-02  0.000000E+00  2.330146E-02  1.881813E-03 -1.321713E-17 -1.009445E+00  0.000000E+00
  2.551020E-01  4.106501E-02  5.000000E-01  2.576799E-01  4.151850E-02  0.000000E+00  2.336586E-02  2.040012E-03 -1.236036E-17 -1.002456E+00  0.000000E+00
  2.381210E-01  3.952639E-02  5.000000E-01  2.405274E-01  3.996434E-02  0.000000E+00  2.342026E-02  2.205652E-03 -1.203728E-17 -9.954325E-01  0.000000E+00
  2.217090E-01  3.792373E-02  5.000000E-01  2.239496E-01  3.834550E-02  0.000000E+00  2.346439E-02  2.380040E-03 -1.334350E-17 -9.886671E-01  0.000000E+00
  2.058840E-01  3.625960E-02  5.000000E-01  2.079648E-01  3.666457E-02  0.000000E+00  2.347829E-02  2.542006E-03 -1.405791E-17 -9.843605E-01  0.000000E+00
  1.906600E-01  3.456158E-02  5.000000E-01  1.925871E-01  3.494939E-02  0.000000E+00  2.345412E-02  2.655393E-03 -1.523027E-17 -9.858934E-01  0.000000E+00
  1.760460E-01  3.287997E-02  5.000000E-01  1.778255E-01  3.325081E-02  0.000000E+00  2.345859E-02  2.724938E-03 -2.033925E-17 -9.937765E-01  0.000000E+00
  1.620500E-01  3.123883E-02  5.000000E-01  1.636881E-01  3.159309E-02  0.000000E+00  2.358277E-02  2.792708E-03 -3.038051E-17 -1.005253E+00  0.000000E+00
  1.486750E-01  2.964029E-02  5.000000E-01  1.501781E-01  2.997841E-02  0.000000E+00  2.384738E-02  2.888305E-03 -4.607221E-17 -1.017410E+00  0.000000E+00
  1.359210E-01  2.807612E-02  5.000000E-01  1.372953E-01  2.839844E-02  0.000000E+00  2.420217E-02  3.019600E-03 -7.043471E-17 -1.028502E+00  0.000000E+00
  1.237890E-01  2.653747E-02  5.000000E-01  1.250407E-01  2.684425E-02  0.000000E+00  2.457669E-02  3.183964E-03 -1.111474E-16 -1.037889E+00  0.000000E+00
  1.122730E-01  2.501481E-02  5.000000E-01  1.134084E-01  2.530622E-02  0.000000E+00  2.491959E-02  3.376235E-03 -1.804130E-16 -1.045671E+00  0.000000E+00
  1.013710E-01  2.350249E-02  5.000000E-01  1.023964E-01  2.377862E-02  0.000000E+00  2.520817E-02  3.589922E-03 -2.971213E-16 -1.052458E+00  0.000000E+00
  9.107400E-02  2.199847E-02  5.000000E-01  9.199536E-02  2.225941E-02  0.000000E+00  2.544611E-02  3.824232E-03 -4.956441E-16 -1.058827E+00  0.000000E+00
  9.107400E-02  2.199847E-02  5.000000E-01  9.199536E-02  2.225941E-02  0.000000E+00  2.544611E-02  3.824232E-03 -4.956441E-16 -1.058827E+00  0.000000E+00
  8.137660E-02  2.050050E-02  5.000000E-01  8.220003E-02  2.074632E-02  0.000000E+00  2.564149E-02  4.077530E-03 -8.372158E-16 -1.065524E+00  0.000000E+00
  7.227050E-02  1.901101E-02  5.000000E-01  7.300197E-02  1.924178E-02  0.000000E+00  2.579869E-02  4.343878E-03 -1.428960E-15 -1.073565E+00  0.000000E+00
  6.374670E-02  1.753509E-02  5.000000E-01  6.439209E-02  1.775096E-02  0.000000E+00  2.592852E-02  4.624401E-03 -2.453773E-15 -1.083621E+00  0.000000E+00
  5.579720E-02  1.607605E-02  5.000000E-01  5.636231E-02  1.627719E-02  0.000000E+00  2.603159E-02  4.915257E-03 -4.216837E-15 -1.096599E+00  0.000000E+00
  4.841260E-02  1.464244E-02  5.000000E-01  4.890313E-02  1.482909E-02  0.000000E+00  2.610605E-02  5.211186E-03 -7.191860E-15 -1.113489E+00  0.000000E+00
  4.158390E-02  1.324205E-02  5.000000E-01  4.200547E-02  1.341456E-02  0.000000E+00  2.615706E-02  5.518636E-03 -1.200247E-14 -1.134684E+00  0.000000E+00
  3.530370E-02  1.187975E-02  5.000000E-01  3.566185E-02  1.203851E-02  0.000000E+00  2.616565E-02  5.832291E-03 -1.924801E-14 -1.161021E+00  0.000000E+00
  2.956270E-02  1.056506E-02  5.000000E-01  2.986287E-02  1.071054E-02  0.000000E+00  2.610464E-02  6.147330E-03 -2.906052E-14 -1.193167E+00  0.000000E+00
  2.435310E-02  9.304522E-03  5.000000E-01  2.460066E-02  9.437271E-03  0.000000E+00  2.593401E-02  6.475620E-03 -4.031533E-14 -1.230533E+00  0.000000E+00
  1.967110E-02  8.098616E-03  5.000000E-01  1.987137E-02  8.219187E-03  0.000000E+00  2.551925E-02  6.787764E-03 -4.992986E-14 -1.273429E+00  0.000000E+00
  1.550860E-02  6.954512E-03  5.000000E-01  1.566684E-02  7.063528E-03  0.000000E+00  2.468250E-02  7.035309E-03 -5.348391E-14 -1.322163E+00  0.000000E+00
  1.185930E-02  5.875869E-03  5.000000E-01  1.198068E-02  5.973992E-03  0.000000E+00  2.332613E-02  7.210993E-03 -4.767186E-14 -1.374883E+00  0.000000E+00
  8.724160E-03  4.858872E-03  5.000000E-01  8.813883E-03  4.946725E-03  0.000000E+00  2.157616E-02  7.342467E-03 -3.320341E-14 -1.431132E+00  0.000000E+00
  6.091130E-03  3.911715E-03  5.000000E-01  6.154263E-03  3.990003E-03  0.000000E+00  2.032107E-02  7.819126E-03 -1.636859E-14 -1.486311E+00  0.000000E+00
  3.952840E-03  3.037116E-03  5.000000E-01  3.994378E-03  3.106572E-03  0.000000E+00  2.113334E-02  9.732393E-03 -5.858567E-15 -1.523490E+00  0.000000E+00
  2.330070E-03  2.222287E-03  5.000000E-01  2.355220E-03  2.283514E-03  0.000000E+00  2.423757E-02  1.419391E-02 -5.357702E-15 -1.531181E+00  0.000000E+00
  1.198080E-03  1.485339E-03  5.000000E-01  1.211798E-03  1.539123E-03  0.000000E+00  2.759950E-02  2.138918E-02 -1.160143E-14 -1.519345E+00  0.000000E+00
  5.019560E-04  8.593307E-04  5.000000E-01  5.086442E-04  9.067929E-04  0.000000E+00  3.041296E-02  3.350444E-02 -2.018140E-14 -1.530890E+00  0.000000E+00
  1.313430E-04  3.761797E-04  5.000000E-01  1.342884E-04  4.187626E-04  0.000000E+00  3.506660E-02  7.036875E-02 -2.943323E-14 -1.566163E+00  0.000000E+00
  8.078190E-06  6.803314E-05  5.000000E-01  9.778777E-06  1.075041E-04  0.000000E+00  3.054589E-02  1.732929E-01 -4.086487E-14 -1.484786E+00  0.000000E+00
 -1.602820E-06 -3.839613E-05  5.000000E-01  0.000000E+00  0.000000E+00  0.000000E+00 -4.943420E-03  2.521489E-01 -5.232469E-14 -1.190878E+00  0.000000E+00
  9.141860E-06 -1.484478E-04  5.000000E-01  1.085319E-05 -1.111630E-04  0.000000E+00 -4.976235E-02  1.967989E-01 -6.343470E-14 -4.687717E-01  0.000000E+00