 Title = "ADflow Slice Data"
Variables =  "CoordinateX"  "CoordinateY"  "CoordinateZ"  "XoC"  "YoC"  "ZoC" "VelocityX" "VelocityY" "VelocityZ" "CoefPressure" "Mach" 
Zone T= "Slice_0001 None Absolute Regular z = 0.50000000"
 Nodes =          192  Elements=          184  ZONETYPE=FELINESEG
 DATAPACKING=POINT
  5.667600E-01 -1.577732E-02  5.000000E-01  5.724853E-01 -1.589433E-02  0.000000E+00  1.369626E-02  1.593347E-03  2.847727E-18  7.827048E-02  0.000000E+00
  5.873410E-01 -1.333595E-02  5.000000E-01  5.932741E-01 -1.342830E-02  0.000000E+00  1.300067E-02  1.553177E-03  2.313075E-18  1.059596E-01  0.000000E+00
  6.076580E-01 -1.089069E-02  5.000000E-01  6.137963E-01 -1.095835E-02  0.000000E+00  1.237817E-02  1.485717E-03  1.473880E-19  1.346845E-01  0.000000E+00
  6.276600E-01 -8.498133E-03  5.000000E-01  6.340003E-01 -8.541632E-03  0.000000E+00  1.185744E-02  1.402399E-03 -1.201258E-18  1.615104E-01  0.000000E+00
  6.472970E-01 -6.204397E-03  5.000000E-01  6.538356E-01 -6.224732E-03  0.000000E+00  1.144409E-02  1.313108E-03 -8.293278E-19  1.849062E-01  0.000000E+00
  6.665260E-01 -4.039876E-03  5.000000E-01  6.732588E-01 -4.038352E-03  0.000000E+00  1.112722E-02  1.224622E-03 -2.191863E-19  2.046920E-01  0.000000E+00
  6.853050E-01 -2.021608E-03  5.000000E-01  6.922274E-01 -1.999701E-03  0.000000E+00  1.088586E-02  1.139259E-03 -1.903477E-18  2.215235E-01  0.000000E+00
  7.035980E-01 -1.595892E-04  5.000000E-01  7.107052E-01 -1.188787E-04  0.000000E+00  1.069068E-02  1.056151E-03 -2.819349E-18  2.361860E-01  0.000000E+00
  7.213750E-01  1.542399E-03  5.000000E-01  7.286617E-01  1.600298E-03  0.000000E+00  1.050410E-02  9.739530E-04 -7.233197E-19  2.492108E-01  0.000000E+00
  7.386080E-01  3.087071E-03  5.000000E-01  7.460687E-01  3.160569E-03  0.000000E+00  1.028764E-02  8.928309E-04  1.833384E-19  2.611040E-01  0.000000E+00
  7.552750E-01  4.484933E-03  5.000000E-01  7.629040E-01  4.572548E-03  0.000000E+00  1.001790E-02  8.156261E-04  1.399262E-21  2.725040E-01  0.000000E+00
  7.713580E-01  5.752651E-03  5.000000E-01  7.791495E-01  5.853069E-03  0.000000E+00  9.705491E-03  7.432669E-04 -3.496368E-19  2.839936E-01  0.000000E+00
  7.868410E-01  6.903674E-03  5.000000E-01  7.947888E-01  7.015716E-03  0.000000E+00  9.417376E-03  6.578758E-04 -8.037399E-19  2.973005E-01  0.000000E+00
  8.017160E-01  7.878893E-03  5.000000E-01  8.098140E-01  8.000783E-03  0.000000E+00  9.256265E-03  5.361569E-04 -4.265813E-19  3.127783E-01  0.000000E+00
  8.159740E-01  8.594792E-03  5.000000E-01  8.242160E-01  8.723912E-03  0.000000E+00  9.288132E-03  3.833583E-04  6.604725E-19  3.254388E-01  0.000000E+00
  8.296120E-01  9.033558E-03  5.000000E-01  8.379918E-01  9.167109E-03  0.000000E+00  9.518867E-03  2.171926E-04  4.556042E-19  3.303618E-01  0.000000E+00
  8.426300E-01  9.211318E-03  5.000000E-01  8.511412E-01  9.346664E-03  0.000000E+00  9.926487E-03  4.460608E-05  2.934097E-19  3.274485E-01  0.000000E+00
  8.550290E-01  9.159337E-03  5.000000E-01  8.636654E-01  9.294158E-03  0.000000E+00  1.048360E-02 -1.333134E-04  5.166361E-19  3.186619E-01  0.000000E+00
  8.668160E-01  8.915270E-03  5.000000E-01  8.755715E-01  9.047627E-03  0.000000E+00  1.116175E-02 -3.153788E-04 -2.135056E-19  3.053404E-01  0.000000E+00
  8.779950E-01  8.520326E-03  5.000000E-01  8.868634E-01  8.648694E-03  0.000000E+00  1.193136E-02 -4.990117E-04 -4.610538E-21  2.880380E-01  0.000000E+00
  8.885730E-01  8.013738E-03  5.000000E-01  8.975482E-01  8.136990E-03  0.000000E+00  1.276328E-02 -6.816156E-04  3.470522E-19  2.673387E-01  0.000000E+00
  8.985610E-01  7.428848E-03  5.000000E-01  9.076371E-01  7.546193E-03  0.000000E+00  1.362499E-02 -8.564322E-04  3.916387E-19  2.437609E-01  0.000000E+00
  9.079670E-01  6.799411E-03  5.000000E-01  9.171381E-01  6.910399E-03  0.000000E+00  1.447728E-02 -1.011093E-03  1.591978E-18  2.177640E-01  0.000000E+00
  9.168010E-01  6.157918E-03  5.000000E-01  9.260613E-01  6.262428E-03  0.000000E+00  1.528260E-02 -1.136444E-03  2.399784E-18  1.904028E-01  0.000000E+00
  9.168010E-01  6.157918E-03  5.000000E-01  9.260613E-01  6.262428E-03  0.000000E+00  1.528260E-02 -1.136444E-03  2.399784E-18  1.904028E-01  0.000000E+00
  9.250730E-01  5.529164E-03  5.000000E-01  9.344168E-01  5.627324E-03  0.000000E+00  1.601777E-02 -1.233698E-03  1.497879E-18  1.631992E-01  0.000000E+00
  9.327940E-01  4.927380E-03  5.000000E-01  9.422158E-01  5.019463E-03  0.000000E+00  1.668225E-02 -1.314527E-03  8.261651E-19  1.374651E-01  0.000000E+00
  9.399760E-01  4.355838E-03  5.000000E-01  9.494703E-01  4.442149E-03  0.000000E+00  1.729223E-02 -1.390449E-03  1.065405E-18  1.134691E-01  0.000000E+00
  9.466320E-01  3.815236E-03  5.000000E-01  9.561935E-01  3.896087E-03  0.000000E+00  1.786785E-02 -1.465990E-03  1.650776E-18  9.047503E-02  0.000000E+00
  9.527730E-01  3.306393E-03  5.000000E-01  9.623965E-01  3.382106E-03  0.000000E+00  1.843375E-02 -1.547635E-03  2.012822E-18  6.794449E-02  0.000000E+00
  9.584110E-01  2.827167E-03  5.000000E-01  9.680915E-01  2.898041E-03  0.000000E+00  1.902262E-02 -1.646028E-03  1.674987E-18  4.564586E-02  0.000000E+00
  9.635570E-01  2.374325E-03  5.000000E-01  9.732895E-01  2.440625E-03  0.000000E+00  1.966833E-02 -1.767048E-03  5.085041E-19  2.286222E-02  0.000000E+00
  9.682220E-01  1.946796E-03  5.000000E-01  9.780016E-01  2.008779E-03  0.000000E+00  2.040300E-02 -1.911331E-03 -1.567221E-18 -1.494084E-03  0.000000E+00
  9.724140E-01  1.545860E-03  5.000000E-01  9.822359E-01  1.603794E-03  0.000000E+00  2.127462E-02 -2.086882E-03 -2.638457E-18 -2.805290E-02  0.000000E+00
  9.761430E-01  1.171440E-03  5.000000E-01  9.860026E-01  1.225593E-03  0.000000E+00  2.236528E-02 -2.310857E-03  3.752546E-18 -5.726581E-02  0.000000E+00
  9.794160E-01  8.242702E-04  5.000000E-01  9.893086E-01  8.749165E-04  0.000000E+00  2.377693E-02 -2.596670E-03  2.456817E-17 -9.021290E-02  0.000000E+00
  9.822400E-01  5.074289E-04  5.000000E-01  9.921611E-01  5.548755E-04  0.000000E+00  2.556040E-02 -2.946507E-03  3.784825E-17 -1.283460E-01  0.000000E+00
  9.846200E-01  2.260646E-04  5.000000E-01  9.945652E-01  2.706698E-04  0.000000E+00  2.758459E-02 -3.347134E-03 -4.747858E-17 -1.720125E-01  0.000000E+00
  9.865620E-01 -1.453641E-05  5.000000E-01  9.965268E-01  2.763893E-05  0.000000E+00  2.940306E-02 -3.710749E-03 -3.511211E-16 -2.193217E-01  0.000000E+00
  9.880680E-01 -2.086063E-04  5.000000E-01  9.980480E-01 -1.683908E-04  0.000000E+00  2.986804E-02 -3.825712E-03 -6.898758E-16 -2.765263E-01  0.000000E+00
  9.891420E-01 -3.514241E-04  5.000000E-01  9.991328E-01 -3.126510E-04  0.000000E+00  2.811954E-02 -3.909949E-03  1.200680E-16 -3.433985E-01  0.000000E+00
  9.897860E-01 -4.389488E-04  5.000000E-01  9.997833E-01 -4.010596E-04  0.000000E+00  3.787470E-02 -4.011979E-03  4.032756E-15 -2.892664E-01  0.000000E+00
  9.900000E-01 -4.683024E-04  5.000000E-01  9.999995E-01 -4.307096E-04  0.000000E+00  2.618121E-02  5.267910E-03  3.719561E-15 -5.818492E-01  0.000000E+00
  9.900000E-01 -1.843755E-04  5.000000E-01  9.999995E-01 -1.439153E-04  0.000000E+00  1.229289E-03 -7.883449E-03  1.525490E-15 -8.086178E-01  0.000000E+00
  9.900000E-01  9.955142E-05  5.000000E-01  9.999995E-01  1.428789E-04  0.000000E+00 -4.467734E-04 -2.274429E-02  3.170086E-15 -6.281752E-01  0.000000E+00
  9.900000E-01  3.834783E-04  5.000000E-01  9.999995E-01  4.296732E-04  0.000000E+00 -1.435934E-04 -8.858868E-03  3.814163E-15 -6.281422E-01  0.000000E+00
  9.900000E-01  6.674052E-04  5.000000E-01  9.999995E-01  7.164674E-04  0.000000E+00  4.646303E-04 -5.226966E-03  3.687619E-15 -6.880343E-01  0.000000E+00
  9.900000E-01  9.513321E-04  5.000000E-01  9.999995E-01  1.003262E-03  0.000000E+00  6.797025E-03 -6.631242E-03  3.399063E-15 -6.297867E-01  0.000000E+00
  9.900000E-01  9.513321E-04  5.000000E-01  9.999995E-01  1.003262E-03  0.000000E+00  6.797025E-03 -6.631242E-03  3.399063E-15 -6.297867E-01  0.000000E+00
  9.897890E-01  1.017904E-03  5.000000E-01  9.997864E-01  1.070506E-03  0.000000E+00  9.015707E-03 -3.469565E-03  2.861622E-15 -5.522271E-01  0.000000E+00
  9.891540E-01  1.218674E-03  5.000000E-01  9.991450E-01  1.273303E-03  0.000000E+00  4.569075E-03 -1.351681E-03  1.885090E-15 -5.708357E-01  0.000000E+00
  9.880950E-01  1.555408E-03  5.000000E-01  9.980753E-01  1.613438E-03  0.000000E+00  3.027526E-03 -9.618006E-04  1.039736E-15 -5.703931E-01  0.000000E+00
  9.866100E-01  2.031333E-03  5.000000E-01  9.965753E-01  2.094169E-03  0.000000E+00  1.987609E-03 -6.510216E-04  5.014698E-16 -5.624872E-01  0.000000E+00
  9.846960E-01  2.650662E-03  5.000000E-01  9.946419E-01  2.719753E-03  0.000000E+00  1.000472E-03 -3.249465E-04  2.150724E-16 -5.588413E-01  0.000000E+00
  9.823490E-01  3.418251E-03  5.000000E-01  9.922712E-01  3.495094E-03  0.000000E+00  1.898508E-04 -6.078560E-05  7.473770E-17 -5.578508E-01  0.000000E+00
  9.795670E-01  4.338749E-03  5.000000E-01  9.894611E-01  4.424887E-03  0.000000E+00 -4.230902E-04  1.411550E-04  9.069403E-18 -5.580798E-01  0.000000E+00
  9.763420E-01  5.417935E-03  5.000000E-01  9.862036E-01  5.514972E-03  0.000000E+00 -8.673989E-04  2.918749E-04 -1.557703E-17 -5.595117E-01  0.000000E+00
  9.726710E-01  6.659545E-03  5.000000E-01  9.824955E-01  6.769121E-03  0.000000E+00 -1.167325E-03  3.965833E-04 -1.764743E-17 -5.620347E-01  0.000000E+00
  9.685460E-01  8.066757E-03  5.000000E-01  9.783288E-01  8.190544E-03  0.000000E+00 -1.340050E-03  4.587313E-04 -1.088958E-17 -5.652314E-01  0.000000E+00
  9.639600E-01  9.641715E-03  5.000000E-01  9.736965E-01  9.781408E-03  0.000000E+00 -1.402060E-03  4.828338E-04 -4.983630E-18 -5.685954E-01  0.000000E+00
  9.589060E-01  1.138657E-02  5.000000E-01  9.685915E-01  1.154388E-02  0.000000E+00 -1.373593E-03  4.750989E-04 -2.141461E-18 -5.716514E-01  0.000000E+00
  9.533750E-01  1.330250E-02  5.000000E-01  9.630046E-01  1.347916E-02  0.000000E+00 -1.280341E-03  4.437915E-04 -1.475011E-19 -5.740347E-01  0.000000E+00
  9.473580E-01  1.538826E-02  5.000000E-01  9.569269E-01  1.558598E-02  0.000000E+00 -1.152004E-03  3.990142E-04  7.868784E-19 -5.755575E-01  0.000000E+00
  9.408450E-01  1.764052E-02  5.000000E-01  9.503481E-01  1.786099E-02  0.000000E+00 -1.018730E-03  3.514401E-04  5.005572E-19 -5.762457E-01  0.000000E+00
  9.338260E-01  2.005400E-02  5.000000E-01  9.432582E-01  2.029885E-02  0.000000E+00 -9.072070E-04  3.105621E-04 -7.317665E-19 -5.763247E-01  0.000000E+00
  9.262910E-01  2.262026E-02  5.000000E-01  9.356471E-01  2.289102E-02  0.000000E+00 -8.380348E-04  2.834219E-04 -1.012210E-18 -5.761452E-01  0.000000E+00
  9.182290E-01  2.532648E-02  5.000000E-01  9.275037E-01  2.562457E-02  0.000000E+00 -8.251529E-04  2.741235E-04 -9.408526E-19 -5.760767E-01  0.000000E+00
  9.096280E-01  2.815497E-02  5.000000E-01  9.188158E-01  2.848162E-02  0.000000E+00 -8.762978E-04  2.839359E-04 -1.447700E-18 -5.764790E-01  0.000000E+00
  9.004770E-01  3.108225E-02  5.000000E-01  9.095724E-01  3.143847E-02  0.000000E+00 -9.933734E-04  3.115215E-04 -9.742330E-19 -5.776695E-01  0.000000E+00
  8.907650E-01  3.407743E-02  5.000000E-01  8.997623E-01  3.446389E-02  0.000000E+00 -1.173702E-03  3.526362E-04 -5.993664E-19 -5.797377E-01  0.000000E+00
  8.804800E-01  3.709913E-02  5.000000E-01  8.893735E-01  3.751611E-02  0.000000E+00 -1.410692E-03  3.997163E-04 -1.354442E-18 -5.825817E-01  0.000000E+00
  8.696090E-01  4.009163E-02  5.000000E-01  8.783927E-01  4.053884E-02  0.000000E+00 -1.690459E-03  4.433708E-04 -1.062639E-18 -5.861423E-01  0.000000E+00
  8.696090E-01  4.009163E-02  5.000000E-01  8.783927E-01  4.053884E-02  0.000000E+00 -1.690459E-03  4.433708E-04 -1.062639E-18 -5.861423E-01  0.000000E+00
  8.581400E-01  4.298295E-02  5.000000E-01  8.668079E-01  4.345935E-02  0.000000E+00 -1.993091E-03  4.746739E-04 -2.346594E-19 -5.894861E-01  0.000000E+00
  8.460600E-01  4.568897E-02  5.000000E-01  8.546059E-01  4.619270E-02  0.000000E+00 -2.300732E-03  4.837017E-04 -2.662976E-19 -5.904223E-01  0.000000E+00
  8.333640E-01  4.812999E-02  5.000000E-01  8.417817E-01  4.865837E-02  0.000000E+00 -2.560725E-03  4.504073E-04 -8.291211E-19 -5.918165E-01  0.000000E+00
  8.200460E-01  5.023058E-02  5.000000E-01  8.283292E-01  5.078018E-02  0.000000E+00 -2.548380E-03  3.468249E-04 -1.541094E-19 -6.123193E-01  0.000000E+00
  8.061050E-01  5.192359E-02  5.000000E-01  8.142474E-01  5.249029E-02  0.000000E+00 -1.695784E-03  1.670055E-04  1.204311E-18 -6.812156E-01  0.000000E+00
  7.915460E-01  5.318362E-02  5.000000E-01  7.995413E-01  5.376304E-02  0.000000E+00  8.717631E-04 -4.572903E-05  2.112424E-18 -8.058477E-01  0.000000E+00
  7.763770E-01  5.405029E-02  5.000000E-01  7.842191E-01  5.463846E-02  0.000000E+00  5.790035E-03 -2.112941E-04  1.700490E-18 -9.476876E-01  0.000000E+00
  7.606070E-01  5.459324E-02  5.000000E-01  7.682899E-01  5.518689E-02  0.000000E+00  1.238271E-02 -2.340870E-04 -1.188692E-18 -1.048339E+00  0.000000E+00
  7.442510E-01  5.481970E-02  5.000000E-01  7.517687E-01  5.541564E-02  0.000000E+00  1.829163E-02 -5.487928E-05 -6.043127E-18 -1.082068E+00  0.000000E+00
  7.273250E-01  5.474728E-02  5.000000E-01  7.346718E-01  5.534249E-02  0.000000E+00  2.140190E-02  2.411740E-04 -1.140786E-17 -1.069190E+00  0.000000E+00
  7.098490E-01  5.442801E-02  5.000000E-01  7.170193E-01  5.502000E-02  0.000000E+00  2.170535E-02  4.723854E-04 -1.372734E-17 -1.044759E+00  0.000000E+00
  6.918480E-01  5.395728E-02  5.000000E-01  6.988365E-01  5.454451E-02  0.000000E+00  2.059867E-02  5.247024E-04 -1.330229E-17 -1.033724E+00  0.000000E+00
  6.733520E-01  5.348434E-02  5.000000E-01  6.801537E-01  5.406679E-02  0.000000E+00  1.939675E-02  3.854159E-04 -1.155589E-17 -1.047034E+00  0.000000E+00
  6.543930E-01  5.320772E-02  5.000000E-01  6.610032E-01  5.378738E-02  0.000000E+00  1.881356E-02  1.196773E-04 -7.648883E-18 -1.081328E+00  0.000000E+00
  6.350090E-01  5.324636E-02  5.000000E-01  6.414235E-01  5.382641E-02  0.000000E+00  1.908484E-02 -1.549192E-04 -4.201576E-18 -1.121314E+00  0.000000E+00
  6.152440E-01  5.353241E-02  5.000000E-01  6.214589E-01  5.411534E-02  0.000000E+00  2.000637E-02 -3.539378E-04 -3.499934E-18 -1.152474E+00  0.000000E+00
  5.951420E-01  5.395455E-02  5.000000E-01  6.011539E-01  5.454176E-02  0.000000E+00  2.112293E-02 -4.397579E-04 -3.625334E-18 -1.167784E+00  0.000000E+00
  5.747530E-01  5.438039E-02  5.000000E-01  5.805590E-01  5.497189E-02  0.000000E+00  2.206529E-02 -3.760103E-04 -4.126845E-18 -1.164707E+00  0.000000E+00
  5.541290E-01  5.466253E-02  5.000000E-01  5.597267E-01  5.525689E-02  0.000000E+00  2.266252E-02 -1.513804E-04 -4.870203E-18 -1.144676E+00  0.000000E+00
  5.333260E-01  5.466098E-02  5.000000E-01  5.387136E-01  5.525531E-02  0.000000E+00  2.285003E-02  1.583507E-04 -5.268675E-18 -1.115347E+00  0.000000E+00
  5.124010E-01  5.436768E-02  5.000000E-01  5.175773E-01  5.495905E-02  0.000000E+00  2.267756E-02  4.419026E-04 -5.514547E-18 -1.086686E+00  0.000000E+00
  4.914140E-01  5.383854E-02  5.000000E-01  4.963783E-01  5.442457E-02  0.000000E+00  2.233426E-02  6.532318E-04 -5.594532E-18 -1.064428E+00  0.000000E+00
  4.704230E-01  5.313618E-02  5.000000E-01  4.751754E-01  5.371512E-02  0.000000E+00  2.200684E-02  7.905726E-04 -6.132104E-18 -1.050796E+00  0.000000E+00
  1.696960E-04 -4.851272E-04  5.000000E-01  1.730287E-04 -4.477043E-04  0.000000E+00 -6.421881E-02  9.283836E-02 -6.728641E-14  5.414166E-01  0.000000E+00
  8.054360E-04 -9.844903E-04  5.000000E-01  8.151890E-04 -9.521104E-04  0.000000E+00 -4.681389E-02  3.293724E-02 -5.225870E-14  1.106522E+00  0.000000E+00
  1.973980E-03 -1.595325E-03  5.000000E-01  1.995534E-03 -1.569114E-03  0.000000E+00 -2.099670E-02  1.052220E-02 -2.878527E-14  1.176518E+00  0.000000E+00
  3.614630E-03 -2.315265E-03  5.000000E-01  3.652753E-03 -2.296325E-03  0.000000E+00 -4.029855E-03  1.775442E-03 -9.888548E-15  1.152931E+00  0.000000E+00
  5.721210E-03 -3.152527E-03  5.000000E-01  5.780607E-03 -3.142042E-03  0.000000E+00  5.039879E-03 -1.886003E-03 -8.763433E-17  1.122434E+00  0.000000E+00
  8.297500E-03 -4.104396E-03  5.000000E-01  8.382914E-03 -4.103523E-03  0.000000E+00  9.354866E-03 -3.302519E-03  2.491017E-15  1.077811E+00  0.000000E+00
  1.136560E-02 -5.151025E-03  5.000000E-01  1.148200E-02 -5.160722E-03  0.000000E+00  1.113487E-02 -3.659027E-03  1.838123E-15  1.022984E+00  0.000000E+00
  1.493280E-02 -6.280809E-03  5.000000E-01  1.508522E-02 -6.301916E-03  0.000000E+00  1.174529E-02 -3.626503E-03  6.990026E-16  9.679744E-01  0.000000E+00
  1.899460E-02 -7.501584E-03  5.000000E-01  1.918804E-02 -7.535019E-03  0.000000E+00  1.201815E-02 -3.557230E-03  5.322246E-17  9.167003E-01  0.000000E+00
  2.354800E-02 -8.828836E-03  5.000000E-01  2.378743E-02 -8.875676E-03  0.000000E+00  1.237006E-02 -3.549364E-03 -1.217800E-16  8.661632E-01  0.000000E+00
  2.860130E-02 -1.025746E-02  5.000000E-01  2.889176E-02 -1.031873E-02  0.000000E+00  1.291958E-02 -3.587620E-03 -9.217426E-17  8.137164E-01  0.000000E+00
  3.416500E-02 -1.177566E-02  5.000000E-01  3.451165E-02 -1.185226E-02  0.000000E+00  1.364794E-02 -3.652903E-03 -3.534166E-17  7.605931E-01  0.000000E+00
  4.024810E-02 -1.337342E-02  5.000000E-01  4.065618E-02 -1.346615E-02  0.000000E+00  1.449590E-02 -3.725389E-03 -5.715794E-18  7.077217E-01  0.000000E+00
  4.686030E-02 -1.503751E-02  5.000000E-01  4.733515E-02 -1.514705E-02  0.000000E+00  1.539824E-02 -3.784676E-03  4.091462E-18  6.549078E-01  0.000000E+00
  5.401090E-02 -1.675516E-02  5.000000E-01  5.455797E-02 -1.688205E-02  0.000000E+00  1.630740E-02 -3.821974E-03  5.205486E-18  6.022465E-01  0.000000E+00
  6.170850E-02 -1.851653E-02  5.000000E-01  6.233330E-02 -1.866120E-02  0.000000E+00  1.719679E-02 -3.828590E-03  2.618600E-18  5.493988E-01  0.000000E+00
  6.996310E-02 -2.030593E-02  5.000000E-01  7.067127E-02 -2.046867E-02  0.000000E+00  1.805137E-02 -3.791628E-03  1.066325E-18  4.957099E-01  0.000000E+00
  7.878500E-02 -2.210225E-02  5.000000E-01  7.958226E-02 -2.228313E-02  0.000000E+00  1.886624E-02 -3.707149E-03  1.618792E-19  4.414523E-01  0.000000E+00
  8.818390E-02 -2.388472E-02  5.000000E-01  8.907608E-02 -2.408360E-02  0.000000E+00  1.963979E-02 -3.574914E-03  1.552177E-20  3.871708E-01  0.000000E+00
  9.816930E-02 -2.562909E-02  5.000000E-01  9.916232E-02 -2.584559E-02  0.000000E+00  2.036123E-02 -3.389924E-03  1.031541E-18  3.330828E-01  0.000000E+00
  1.087500E-01 -2.730680E-02  5.000000E-01  1.098499E-01 -2.754024E-02  0.000000E+00  2.100571E-02 -3.148603E-03  1.566157E-18  2.798281E-01  0.000000E+00
  1.199340E-01 -2.888896E-02  5.000000E-01  1.211468E-01 -2.913838E-02  0.000000E+00  2.152605E-02 -2.846718E-03  1.048464E-18  2.284013E-01  0.000000E+00
  1.317280E-01 -3.034242E-02  5.000000E-01  1.330599E-01 -3.060652E-02  0.000000E+00  2.184843E-02 -2.478259E-03 -6.640358E-20  1.800159E-01  0.000000E+00
  1.441380E-01 -3.162976E-02  5.000000E-01  1.455952E-01 -3.190686E-02  0.000000E+00  2.189493E-02 -2.049193E-03 -1.683598E-19  1.368538E-01  0.000000E+00
  1.441380E-01 -3.162976E-02  5.000000E-01  1.455952E-01 -3.190686E-02  0.000000E+00  2.189493E-02 -2.049193E-03 -1.683598E-19  1.368538E-01  0.000000E+00
  1.571670E-01 -3.271635E-02  5.000000E-01  1.587558E-01 -3.300443E-02  0.000000E+00  2.162444E-02 -1.582521E-03  1.106048E-18  1.018083E-01  0.000000E+00
  1.708170E-01 -3.357266E-02  5.000000E-01  1.725437E-01 -3.386939E-02  0.000000E+00  2.108113E-02 -1.118489E-03  1.401618E-18  7.760437E-02  0.000000E+00
  1.850860E-01 -3.418631E-02  5.000000E-01  1.869568E-01 -3.448923E-02  0.000000E+00  2.042467E-02 -7.181535E-04  1.896317E-18  6.594804E-02  0.000000E+00
  1.999720E-01 -3.458636E-02  5.000000E-01  2.019931E-01 -3.489332E-02  0.000000E+00  1.989593E-02 -4.528009E-04  1.213408E-18  6.617814E-02  0.000000E+00
  2.154670E-01 -3.487090E-02  5.000000E-01  2.176446E-01 -3.518074E-02  0.000000E+00  1.967703E-02 -3.423582E-04 -4.630416E-20  7.157522E-02  0.000000E+00
  2.315610E-01 -3.513830E-02  5.000000E-01  2.339011E-01 -3.545083E-02  0.000000E+00  1.975853E-02 -3.066340E-04  1.869084E-19  6.922063E-02  0.000000E+00
  2.482400E-01 -3.538429E-02  5.000000E-01  2.507486E-01 -3.569931E-02  0.000000E+00  2.002447E-02 -2.606052E-04  7.575266E-19  5.244731E-02  0.000000E+00
  2.654840E-01 -3.558053E-02  5.000000E-01  2.681667E-01 -3.589753E-02  0.000000E+00  2.036402E-02 -1.742731E-04  1.657167E-18  2.512280E-02  0.000000E+00
  2.832720E-01 -3.568292E-02  5.000000E-01  2.861343E-01 -3.600095E-02  0.000000E+00  2.065778E-02 -3.265871E-05  1.571897E-18 -6.567381E-03  0.000000E+00
  3.015770E-01 -3.563585E-02  5.000000E-01  3.046242E-01 -3.595341E-02  0.000000E+00  2.077623E-02  1.710929E-04 -2.845653E-19 -3.749303E-02  0.000000E+00
  3.203660E-01 -3.537519E-02  5.000000E-01  3.236030E-01 -3.569012E-02  0.000000E+00  2.061447E-02  4.316726E-04 -1.427938E-18 -6.357025E-02  0.000000E+00
  3.396030E-01 -3.483393E-02  5.000000E-01  3.430342E-01 -3.514340E-02  0.000000E+00  2.015855E-02  7.128306E-04 -1.066870E-18 -8.005960E-02  0.000000E+00
  3.592490E-01 -3.399020E-02  5.000000E-01  3.628786E-01 -3.429114E-02  0.000000E+00  1.950065E-02  9.604777E-04 -8.463105E-19 -8.304698E-02  0.000000E+00
  3.792580E-01 -3.287137E-02  5.000000E-01  3.830897E-01 -3.316101E-02  0.000000E+00  1.876667E-02  1.149147E-03  2.104893E-19 -7.361386E-02  0.000000E+00
  3.995810E-01 -3.151457E-02  5.000000E-01  4.036179E-01 -3.179051E-02  0.000000E+00  1.806189E-02  1.281626E-03  1.257671E-18 -5.667964E-02  0.000000E+00
  4.201670E-01 -2.996518E-02  5.000000E-01  4.244118E-01 -3.022547E-02  0.000000E+00  1.745646E-02  1.366612E-03  1.039870E-18 -3.716363E-02  0.000000E+00
  4.409600E-01 -2.827344E-02  5.000000E-01  4.454148E-01 -2.851665E-02  0.000000E+00  1.696783E-02  1.417947E-03  6.766543E-19 -1.869144E-02  0.000000E+00
  4.619030E-01 -2.647798E-02  5.000000E-01  4.665693E-01 -2.670305E-02  0.000000E+00  1.655011E-02  1.458585E-03  1.043326E-18 -3.676340E-03  0.000000E+00
  4.829360E-01 -2.457471E-02  5.000000E-01  4.878147E-01 -2.478057E-02  0.000000E+00  1.612930E-02  1.502691E-03  8.310866E-19  8.278496E-03  0.000000E+00
  5.039990E-01 -2.255431E-02  5.000000E-01  5.090904E-01 -2.273976E-02  0.000000E+00  1.564825E-02  1.545784E-03  2.964799E-19  2.035495E-02  0.000000E+00
  5.250310E-01 -2.041334E-02  5.000000E-01  5.303348E-01 -2.057717E-02  0.000000E+00  1.507545E-02  1.580133E-03  1.060412E-18  3.537483E-02  0.000000E+00
  5.459710E-01 -1.815226E-02  5.000000E-01  5.514863E-01 -1.829326E-02  0.000000E+00  1.441048E-02  1.599727E-03  2.131423E-18  5.449820E-02  0.000000E+00
  5.667600E-01 -1.577732E-02  5.000000E-01  5.724853E-01 -1.589433E-02  0.000000E+00  1.369626E-02  1.593347E-03  2.847727E-18  7.827048E-02  0.000000E+00
  4.704230E-01  5.313618E-02  5.000000E-01  4.751754E-01  5.371512E-02  0.000000E+00  2.200684E-02  7.905726E-04 -6.132104E-18 -1.050796E+00  0.000000E+00
  4.494880E-01  5.232857E-02  5.000000E-01  4.540289E-01  5.289935E-02  0.000000E+00  2.180452E-02  8.620559E-04 -7.926293E-18 -1.045935E+00  0.000000E+00
  4.286690E-01  5.148327E-02  5.000000E-01  4.329997E-01  5.204552E-02  0.000000E+00  2.178810E-02  8.983612E-04 -9.546933E-18 -1.046977E+00  0.000000E+00
  4.080230E-01  5.062070E-02  5.000000E-01  4.121452E-01  5.117424E-02  0.000000E+00  2.196847E-02  9.455061E-04 -1.092016E-17 -1.049128E+00  0.000000E+00
  3.876050E-01  4.971877E-02  5.000000E-01  3.915210E-01  5.026319E-02  0.000000E+00  2.227386E-02  1.024832E-03 -1.198839E-17 -1.049254E+00  0.000000E+00
  3.674690E-01  4.875666E-02  5.000000E-01  3.711816E-01  4.929137E-02  0.000000E+00  2.259972E-02  1.133498E-03 -1.320163E-17 -1.046514E+00  0.000000E+00
  3.476650E-01  4.771732E-02  5.000000E-01  3.511776E-01  4.824153E-02  0.000000E+00  2.287868E-02  1.266592E-03 -1.434946E-17 -1.040986E+00  0.000000E+00
  3.282390E-01  4.658686E-02  5.000000E-01  3.315555E-01  4.709965E-02  0.000000E+00  2.308865E-02  1.419574E-03 -1.374396E-17 -1.033218E+00  0.000000E+00
  3.092330E-01  4.535609E-02  5.000000E-01  3.123575E-01  4.585646E-02  0.000000E+00  2.323058E-02  1.583300E-03 -1.302170E-17 -1.024247E+00  0.000000E+00
  2.906860E-01  4.402865E-02  5.000000E-01  2.936232E-01  4.451561E-02  0.000000E+00  2.331758E-02  1.749108E-03 -1.280536E-17 -1.015083E+00  0.000000E+00
  2.726330E-01  4.261209E-02  5.000000E-01  2.753879E-01  4.308475E-02  0.000000E+00  2.336962E-02  1.915261E-03 -1.211597E-17 -1.006179E+00  0.000000E+00
  2.551020E-01  4.111402E-02  5.000000E-01  2.576799E-01  4.157155E-02  0.000000E+00  2.340151E-02  2.083009E-03 -1.211913E-17 -9.975997E-01  0.000000E+00
  2.381210E-01  3.954243E-02  5.000000E-01  2.405274E-01  3.998408E-02  0.000000E+00  2.342263E-02  2.256077E-03 -1.243416E-17 -9.892067E-01  0.000000E+00
  2.217090E-01  3.790130E-02  5.000000E-01  2.239496E-01  3.832639E-02  0.000000E+00  2.343386E-02  2.435922E-03 -1.237153E-17 -9.813214E-01  0.000000E+00
  2.058840E-01  3.619461E-02  5.000000E-01  2.079648E-01  3.660246E-02  0.000000E+00  2.341462E-02  2.600132E-03 -1.278229E-17 -9.762995E-01  0.000000E+00
  1.906600E-01  3.445277E-02  5.000000E-01  1.925871E-01  3.484303E-02  0.000000E+00  2.335667E-02  2.709932E-03 -1.476669E-17 -9.778020E-01  0.000000E+00
  1.760460E-01  3.273094E-02  5.000000E-01  1.778255E-01  3.310381E-02  0.000000E+00  2.333131E-02  2.770202E-03 -1.988562E-17 -9.864287E-01  0.000000E+00
  1.620500E-01  3.105622E-02  5.000000E-01  1.636881E-01  3.141218E-02  0.000000E+00  2.343682E-02  2.825955E-03 -3.023919E-17 -9.992368E-01  0.000000E+00
  1.486750E-01  2.943209E-02  5.000000E-01  1.501781E-01  2.977165E-02  0.000000E+00  2.369712E-02  2.908929E-03 -4.664255E-17 -1.013062E+00  0.000000E+00
  1.359210E-01  2.785053E-02  5.000000E-01  1.372953E-01  2.817411E-02  0.000000E+00  2.405995E-02  3.027897E-03 -7.279527E-17 -1.025941E+00  0.000000E+00
  1.237890E-01  2.630216E-02  5.000000E-01  1.250407E-01  2.661011E-02  0.000000E+00  2.444975E-02  3.180445E-03 -1.172979E-16 -1.037084E+00  0.000000E+00
  1.122730E-01  2.477656E-02  5.000000E-01  1.134084E-01  2.506910E-02  0.000000E+00  2.481020E-02  3.361442E-03 -1.906722E-16 -1.046504E+00  0.000000E+00
  1.013710E-01  2.326701E-02  5.000000E-01  1.023964E-01  2.354430E-02  0.000000E+00  2.511555E-02  3.564512E-03 -3.136233E-16 -1.054774E+00  0.000000E+00
  9.107400E-02  2.177039E-02  5.000000E-01  9.199536E-02  2.203257E-02  0.000000E+00  2.536839E-02  3.788985E-03 -5.242380E-16 -1.062460E+00  0.000000E+00
  9.107400E-02  2.177039E-02  5.000000E-01  9.199536E-02  2.203257E-02  0.000000E+00  2.536839E-02  3.788985E-03 -5.242380E-16 -1.062460E+00  0.000000E+00
  8.137660E-02  2.028347E-02  5.000000E-01  8.220003E-02  2.053063E-02  0.000000E+00  2.557690E-02  4.033380E-03 -8.858478E-16 -1.070310E+00  0.000000E+00
  7.227050E-02  1.880774E-02  5.000000E-01  7.300197E-02  1.903999E-02  0.000000E+00  2.574597E-02  4.291915E-03 -1.509180E-15 -1.079339E+00  0.000000E+00
  6.374670E-02  1.734748E-02  5.000000E-01  6.439209E-02  1.756499E-02  0.000000E+00  2.588668E-02  4.565696E-03 -2.585895E-15 -1.090221E+00  0.000000E+00
  5.579720E-02  1.590532E-02  5.000000E-01  5.636231E-02  1.610826E-02  0.000000E+00  2.599950E-02  4.850811E-03 -4.429768E-15 -1.103868E+00  0.000000E+00
  4.841260E-02  1.448920E-02  5.000000E-01  4.890313E-02  1.467785E-02  0.000000E+00  2.608221E-02  5.141864E-03 -7.524789E-15 -1.121276E+00  0.000000E+00
  4.158390E-02  1.310644E-02  5.000000E-01  4.200547E-02  1.328113E-02  0.000000E+00  2.613952E-02  5.445053E-03 -1.250079E-14 -1.142845E+00  0.000000E+00
  3.530370E-02  1.176151E-02  5.000000E-01  3.566185E-02  1.192261E-02  0.000000E+00  2.615204E-02  5.754896E-03 -1.994202E-14 -1.169421E+00  0.000000E+00
  2.956270E-02  1.046360E-02  5.000000E-01  2.986287E-02  1.061159E-02  0.000000E+00  2.609214E-02  6.066421E-03 -2.993586E-14 -1.201673E+00  0.000000E+00
  2.435310E-02  9.218972E-03  5.000000E-01  2.460066E-02  9.354395E-03  0.000000E+00  2.591942E-02  6.391297E-03 -4.128182E-14 -1.239021E+00  0.000000E+00
  1.967110E-02  8.027907E-03  5.000000E-01  1.987137E-02  8.151302E-03  0.000000E+00  2.549892E-02  6.700269E-03 -5.081505E-14 -1.281781E+00  0.000000E+00
  1.550860E-02  6.897397E-03  5.000000E-01  1.566684E-02  7.009375E-03  0.000000E+00  2.465367E-02  6.945531E-03 -5.408205E-14 -1.330261E+00  0.000000E+00
  1.185930E-02  5.830968E-03  5.000000E-01  1.198068E-02  5.932177E-03  0.000000E+00  2.329106E-02  7.121324E-03 -4.785559E-14 -1.382626E+00  0.000000E+00
  8.724160E-03  4.824678E-03  5.000000E-01  8.813883E-03  4.915724E-03  0.000000E+00  2.154828E-02  7.258903E-03 -3.302065E-14 -1.438399E+00  0.000000E+00
  6.091130E-03  3.886652E-03  5.000000E-01  6.154263E-03  3.968225E-03  0.000000E+00  2.033052E-02  7.752717E-03 -1.603554E-14 -1.492958E+00  0.000000E+00
  3.952840E-03  3.019556E-03  5.000000E-01  3.994378E-03  3.092372E-03  0.000000E+00  2.122182E-02  9.700538E-03 -5.636138E-15 -1.529433E+00  0.000000E+00
  2.330070E-03  2.210470E-03  5.000000E-01  2.355220E-03  2.275116E-03  0.000000E+00  2.442993E-02  1.422267E-02 -5.419685E-15 -1.536392E+00  0.000000E+00
  1.198080E-03  1.477548E-03  5.000000E-01  1.211798E-03  1.534792E-03  0.000000E+00  2.787857E-02  2.150982E-02 -1.196488E-14 -1.523726E+00  0.000000E+00
  5.019560E-04  8.540221E-04  5.000000E-01  5.086442E-04  9.049689E-04  0.000000E+00  3.072907E-02  3.374521E-02 -2.068018E-14 -1.534154E+00  0.000000E+00
  1.313430E-04  3.721940E-04  5.000000E-01  1.342884E-04  4.182749E-04  0.000000E+00  3.536594E-02  7.079872E-02 -2.988144E-14 -1.567832E+00  0.000000E+00
  8.078190E-06  6.449194E-05  5.000000E-01  9.778777E-06  1.074654E-04  0.000000E+00  3.071897E-02  1.737839E-01 -4.141911E-14 -1.484744E+00  0.000000E+00
 -1.602820E-06 -4.189901E-05  5.000000E-01  0.000000E+00  0.000000E+00  0.000000E+00 -4.907196E-03  2.523722E-01 -5.296457E-14 -1.189624E+00  0.000000E+00
  9.141860E-06 -1.519833E-04  5.000000E-01  1.085319E-05 -1.111960E-04  0.000000E+00 -4.969119E-02  1.967830E-01 -6.409292E-14 -4.672026E-01  0.000000E+00