 Title = "ADflow Slice Data"
Variables =  "CoordinateX"  "CoordinateY"  "CoordinateZ"  "XoC"  "YoC"  "ZoC" "VelocityX" "VelocityY" "VelocityZ" "CoefPressure" "Mach" 
Zone T= "Slice_0001 None Absolute Regular z = 0.50000000"
 Nodes =          192  Elements=          184  ZONETYPE=FELINESEG
 DATAPACKING=POINT
  5.667600E-01 -1.605715E-02  5.000000E-01  5.724853E-01 -1.619241E-02  0.000000E+00  1.365563E-02  1.620482E-03 -6.284077E-19  7.325597E-02  0.000000E+00
  5.873410E-01 -1.356481E-02  5.000000E-01  5.932741E-01 -1.367490E-02  0.000000E+00  1.291483E-02  1.575640E-03 -3.912766E-19  1.028109E-01  0.000000E+00
  6.076580E-01 -1.106673E-02  5.000000E-01  6.137963E-01 -1.115159E-02  0.000000E+00  1.225772E-02  1.502890E-03  1.548769E-19  1.332952E-01  0.000000E+00
  6.276600E-01 -8.623005E-03  5.000000E-01  6.340003E-01 -8.683193E-03  0.000000E+00  1.171515E-02  1.414215E-03 -7.341349E-19  1.616775E-01  0.000000E+00
  6.472970E-01 -6.283624E-03  5.000000E-01  6.538356E-01 -6.320187E-03  0.000000E+00  1.129406E-02  1.319611E-03 -2.281013E-19  1.863347E-01  0.000000E+00
  6.665260E-01 -4.083193E-03  5.000000E-01  6.732588E-01 -4.097534E-03  0.000000E+00  1.098291E-02  1.226138E-03  9.164447E-19  2.069836E-01  0.000000E+00
  6.853050E-01 -2.040754E-03  5.000000E-01  6.922274E-01 -2.034468E-03  0.000000E+00  1.075712E-02  1.137021E-03  1.178796E-18  2.241622E-01  0.000000E+00
  7.035980E-01 -1.642146E-04  5.000000E-01  7.107052E-01 -1.389783E-04  0.000000E+00  1.058254E-02  1.051859E-03  1.303526E-18  2.387130E-01  0.000000E+00
  7.213750E-01  1.545230E-03  5.000000E-01  7.286617E-01  1.587730E-03  0.000000E+00  1.041777E-02  9.689249E-04  1.538873E-18  2.513945E-01  0.000000E+00
  7.386080E-01  3.092674E-03  5.000000E-01  7.460687E-01  3.150802E-03  0.000000E+00  1.022170E-02  8.879174E-04  1.424997E-18  2.628944E-01  0.000000E+00
  7.552750E-01  4.490602E-03  5.000000E-01  7.629041E-01  4.562847E-03  0.000000E+00  9.969327E-03  8.113283E-04  8.636752E-19  2.739313E-01  0.000000E+00
  7.713580E-01  5.757195E-03  5.000000E-01  7.791495E-01  5.842231E-03  0.000000E+00  9.670466E-03  7.398488E-04  1.748770E-18  2.851089E-01  0.000000E+00
  7.868410E-01  6.906982E-03  5.000000E-01  7.947888E-01  7.003630E-03  0.000000E+00  9.392023E-03  6.554110E-04  3.305826E-19  2.981662E-01  0.000000E+00
  8.017160E-01  7.881273E-03  5.000000E-01  8.098141E-01  7.987760E-03  0.000000E+00  9.237305E-03  5.345289E-04 -1.087527E-18  3.134702E-01  0.000000E+00
  8.159740E-01  8.596498E-03  5.000000E-01  8.242160E-01  8.710207E-03  0.000000E+00  9.273244E-03  3.823486E-04  4.585061E-20  3.260241E-01  0.000000E+00
  8.296120E-01  9.034779E-03  5.000000E-01  8.379918E-01  9.152915E-03  0.000000E+00  9.506605E-03  2.166088E-04  9.711033E-19  3.308809E-01  0.000000E+00
  8.426300E-01  9.212189E-03  5.000000E-01  8.511412E-01  9.332116E-03  0.000000E+00  9.916008E-03  4.431890E-05  1.152045E-18  3.279221E-01  0.000000E+00
  8.550290E-01  9.159957E-03  5.000000E-01  8.636655E-01  9.279357E-03  0.000000E+00  1.047442E-02 -1.333890E-04  7.465720E-19  3.191016E-01  0.000000E+00
  8.668160E-01  8.915709E-03  5.000000E-01  8.755715E-01  9.032643E-03  0.000000E+00  1.115360E-02 -3.153040E-04  5.614462E-19  3.057542E-01  0.000000E+00
  8.779950E-01  8.520635E-03  5.000000E-01  8.868634E-01  8.633578E-03  0.000000E+00  1.192409E-02 -4.988333E-04  2.252412E-19  2.884320E-01  0.000000E+00
  8.885730E-01  8.013953E-03  5.000000E-01  8.975482E-01  8.121780E-03  0.000000E+00  1.275679E-02 -6.813708E-04  3.223762E-19  2.677169E-01  0.000000E+00
  8.985610E-01  7.428997E-03  5.000000E-01  9.076371E-01  7.530916E-03  0.000000E+00  1.361922E-02 -8.561513E-04  8.059080E-19  2.441256E-01  0.000000E+00
  9.079670E-01  6.799512E-03  5.000000E-01  9.171381E-01  6.895074E-03  0.000000E+00  1.447218E-02 -1.010801E-03  6.109507E-19  2.181169E-01  0.000000E+00
  9.168010E-01  6.157986E-03  5.000000E-01  9.260613E-01  6.247069E-03  0.000000E+00  1.527813E-02 -1.136163E-03 -4.773381E-20  1.907450E-01  0.000000E+00
  9.168010E-01  6.157986E-03  5.000000E-01  9.260613E-01  6.247069E-03  0.000000E+00  1.527813E-02 -1.136163E-03 -4.773381E-20  1.907450E-01  0.000000E+00
  9.250730E-01  5.529208E-03  5.000000E-01  9.344168E-01  5.611941E-03  0.000000E+00  1.601390E-02 -1.233440E-03 -3.971225E-19  1.635312E-01  0.000000E+00
  9.327940E-01  4.927408E-03  5.000000E-01  9.422158E-01  5.004064E-03  0.000000E+00  1.667896E-02 -1.314298E-03 -5.259136E-19  1.377866E-01  0.000000E+00
  9.399760E-01  4.355854E-03  5.000000E-01  9.494703E-01  4.426738E-03  0.000000E+00  1.728949E-02 -1.390252E-03 -2.894587E-19  1.137802E-01  0.000000E+00
  9.466320E-01  3.815245E-03  5.000000E-01  9.561935E-01  3.880669E-03  0.000000E+00  1.786560E-02 -1.465823E-03  3.833182E-19  9.077588E-02  0.000000E+00
  9.527730E-01  3.306397E-03  5.000000E-01  9.623966E-01  3.366683E-03  0.000000E+00  1.843198E-02 -1.547498E-03  2.870913E-19  6.823545E-02  0.000000E+00
  9.584110E-01  2.827169E-03  5.000000E-01  9.680915E-01  2.882615E-03  0.000000E+00  1.902127E-02 -1.645919E-03  1.503069E-20  4.592740E-02  0.000000E+00
  9.635570E-01  2.374325E-03  5.000000E-01  9.732895E-01  2.425198E-03  0.000000E+00  1.966736E-02 -1.766966E-03 -3.815654E-19  2.313487E-02  0.000000E+00
  9.682220E-01  1.946795E-03  5.000000E-01  9.780016E-01  1.993351E-03  0.000000E+00  2.040237E-02 -1.911275E-03 -1.356492E-18 -1.229794E-03  0.000000E+00
  9.724140E-01  1.545859E-03  5.000000E-01  9.822359E-01  1.588365E-03  0.000000E+00  2.127430E-02 -2.086852E-03 -2.501069E-18 -2.779641E-02  0.000000E+00
  9.761430E-01  1.171439E-03  5.000000E-01  9.860026E-01  1.210164E-03  0.000000E+00  2.236522E-02 -2.310851E-03  4.005656E-19 -5.701647E-02  0.000000E+00
  9.794160E-01  8.242690E-04  5.000000E-01  9.893086E-01  8.594879E-04  0.000000E+00  2.377708E-02 -2.596685E-03  1.243292E-17 -8.996987E-02  0.000000E+00
  9.822400E-01  5.074279E-04  5.000000E-01  9.921611E-01  5.394471E-04  0.000000E+00  2.556067E-02 -2.946535E-03  1.992023E-17 -1.281080E-01  0.000000E+00
  9.846200E-01  2.260639E-04  5.000000E-01  9.945652E-01  2.552416E-04  0.000000E+00  2.758483E-02 -3.347160E-03 -3.174231E-17 -1.717779E-01  0.000000E+00
  9.865620E-01 -1.453693E-05  5.000000E-01  9.965268E-01  1.221097E-05  0.000000E+00  2.940303E-02 -3.710739E-03 -2.144249E-16 -2.190883E-01  0.000000E+00
  9.880680E-01 -2.086066E-04  5.000000E-01  9.980480E-01 -1.838186E-04  0.000000E+00  2.986733E-02 -3.825618E-03 -4.205405E-16 -2.762935E-01  0.000000E+00
  9.891420E-01 -3.514243E-04  5.000000E-01  9.991328E-01 -3.280786E-04  0.000000E+00  2.811778E-02 -3.909715E-03  4.900038E-17 -3.431636E-01  0.000000E+00
  9.897860E-01 -4.389489E-04  5.000000E-01  9.997834E-01 -4.164871E-04  0.000000E+00  3.787188E-02 -4.011678E-03  2.351921E-15 -2.890097E-01  0.000000E+00
  9.900000E-01 -4.683025E-04  5.000000E-01  9.999995E-01 -4.461371E-04  0.000000E+00  2.617935E-02  5.268399E-03  2.230972E-15 -5.816068E-01  0.000000E+00
  9.900000E-01 -1.843756E-04  5.000000E-01  9.999995E-01 -1.593429E-04  0.000000E+00  1.229100E-03 -7.882763E-03  1.416529E-15 -8.083929E-01  0.000000E+00
  9.900000E-01  9.955129E-05  5.000000E-01  9.999995E-01  1.274514E-04  0.000000E+00 -4.467263E-04 -2.274386E-02  3.012410E-15 -6.279381E-01  0.000000E+00
  9.900000E-01  3.834782E-04  5.000000E-01  9.999995E-01  4.142456E-04  0.000000E+00 -1.435597E-04 -8.859378E-03  3.643451E-15 -6.279115E-01  0.000000E+00
  9.900000E-01  6.674051E-04  5.000000E-01  9.999995E-01  7.010398E-04  0.000000E+00  4.646166E-04 -5.228301E-03  3.524887E-15 -6.878052E-01  0.000000E+00
  9.900000E-01  9.513319E-04  5.000000E-01  9.999995E-01  9.878340E-04  0.000000E+00  6.797448E-03 -6.632086E-03  3.249246E-15 -6.295432E-01  0.000000E+00
  9.900000E-01  9.513319E-04  5.000000E-01  9.999995E-01  9.878340E-04  0.000000E+00  6.797448E-03 -6.632086E-03  3.249246E-15 -6.295432E-01  0.000000E+00
  9.897890E-01  1.017904E-03  5.000000E-01  9.997864E-01  1.055078E-03  0.000000E+00  9.016181E-03 -3.469695E-03  2.735727E-15 -5.519688E-01  0.000000E+00
  9.891540E-01  1.218674E-03  5.000000E-01  9.991450E-01  1.257876E-03  0.000000E+00  4.568525E-03 -1.351516E-03  1.802150E-15 -5.705756E-01  0.000000E+00
  9.880950E-01  1.555407E-03  5.000000E-01  9.980753E-01  1.598010E-03  0.000000E+00  3.025793E-03 -9.612444E-04  9.948085E-16 -5.701334E-01  0.000000E+00
  9.866100E-01  2.031332E-03  5.000000E-01  9.965753E-01  2.078741E-03  0.000000E+00  1.984767E-03 -6.501043E-04  4.802665E-16 -5.622291E-01  0.000000E+00
  9.846960E-01  2.650661E-03  5.000000E-01  9.946419E-01  2.704325E-03  0.000000E+00  9.966907E-04 -3.237173E-04  2.060677E-16 -5.585878E-01  0.000000E+00
  9.823490E-01  3.418250E-03  5.000000E-01  9.922712E-01  3.479665E-03  0.000000E+00  1.854184E-04 -5.932811E-05  7.180453E-17 -5.576060E-01  0.000000E+00
  9.795670E-01  4.338747E-03  5.000000E-01  9.894612E-01  4.409458E-03  0.000000E+00 -4.277723E-04  1.427124E-04  9.432832E-18 -5.578467E-01  0.000000E+00
  9.763420E-01  5.417934E-03  5.000000E-01  9.862036E-01  5.499543E-03  0.000000E+00 -8.718686E-04  2.933777E-04 -1.361178E-17 -5.592913E-01  0.000000E+00
  9.726710E-01  6.659544E-03  5.000000E-01  9.824955E-01  6.753692E-03  0.000000E+00 -1.171125E-03  3.978731E-04 -1.547170E-17 -5.618261E-01  0.000000E+00
  9.685460E-01  8.066756E-03  5.000000E-01  9.783289E-01  8.175116E-03  0.000000E+00 -1.342794E-03  4.596707E-04 -9.741692E-18 -5.650310E-01  0.000000E+00
  9.639600E-01  9.641715E-03  5.000000E-01  9.736965E-01  9.765980E-03  0.000000E+00 -1.403508E-03  4.833329E-04 -3.426527E-18 -5.683976E-01  0.000000E+00
  9.589060E-01  1.138657E-02  5.000000E-01  9.685915E-01  1.152846E-02  0.000000E+00 -1.373696E-03  4.751358E-04  2.386900E-19 -5.714491E-01  0.000000E+00
  9.533750E-01  1.330250E-02  5.000000E-01  9.630046E-01  1.346374E-02  0.000000E+00 -1.279258E-03  4.434177E-04  8.406754E-19 -5.738215E-01  0.000000E+00
  9.473580E-01  1.538827E-02  5.000000E-01  9.569269E-01  1.557057E-02  0.000000E+00 -1.150064E-03  3.983435E-04 -5.228686E-20 -5.753294E-01  0.000000E+00
  9.408450E-01  1.764054E-02  5.000000E-01  9.503481E-01  1.784559E-02  0.000000E+00 -1.016366E-03  3.506256E-04 -3.249371E-20 -5.760028E-01  0.000000E+00
  9.338260E-01  2.005404E-02  5.000000E-01  9.432582E-01  2.028345E-02  0.000000E+00 -9.048928E-04  3.097711E-04  7.806118E-19 -5.760702E-01  0.000000E+00
  9.262910E-01  2.262032E-02  5.000000E-01  9.356471E-01  2.287565E-02  0.000000E+00 -8.362505E-04  2.828201E-04  3.262356E-19 -5.758848E-01  0.000000E+00
  9.182290E-01  2.532657E-02  5.000000E-01  9.275037E-01  2.560923E-02  0.000000E+00 -8.243770E-04  2.738667E-04  4.180277E-19 -5.758172E-01  0.000000E+00
  9.096280E-01  2.815510E-02  5.000000E-01  9.188158E-01  2.846633E-02  0.000000E+00 -8.770008E-04  2.841656E-04  1.097637E-18 -5.762274E-01  0.000000E+00
  9.004770E-01  3.108246E-02  5.000000E-01  9.095724E-01  3.142325E-02  0.000000E+00 -9.959948E-04  3.123523E-04  1.097948E-18 -5.774319E-01  0.000000E+00
  8.907650E-01  3.407773E-02  5.000000E-01  8.997623E-01  3.444878E-02  0.000000E+00 -1.178604E-03  3.541161E-04  4.418888E-19 -5.795178E-01  0.000000E+00
  8.804800E-01  3.709958E-02  5.000000E-01  8.893735E-01  3.750114E-02  0.000000E+00 -1.418015E-03  4.017852E-04  4.269396E-19 -5.823883E-01  0.000000E+00
  8.696090E-01  4.009230E-02  5.000000E-01  8.783927E-01  4.052408E-02  0.000000E+00 -1.699944E-03  4.459101E-04  1.090916E-18 -5.859830E-01  0.000000E+00
  8.696090E-01  4.009230E-02  5.000000E-01  8.783927E-01  4.052408E-02  0.000000E+00 -1.699944E-03  4.459101E-04  1.090916E-18 -5.859830E-01  0.000000E+00
  8.581400E-01  4.298391E-02  5.000000E-01  8.668079E-01  4.344490E-02  0.000000E+00 -2.004370E-03  4.775779E-04 -3.478104E-19 -5.893102E-01  0.000000E+00
  8.460600E-01  4.569037E-02  5.000000E-01  8.546059E-01  4.617869E-02  0.000000E+00 -2.313735E-03  4.866474E-04 -1.978884E-18 -5.901422E-01  0.000000E+00
  8.333640E-01  4.813200E-02  5.000000E-01  8.417817E-01  4.864497E-02  0.000000E+00 -2.573372E-03  4.525096E-04 -2.627786E-18 -5.916572E-01  0.000000E+00
  8.200460E-01  5.023346E-02  5.000000E-01  8.283292E-01  5.076766E-02  0.000000E+00 -2.549829E-03  3.467633E-04 -2.163361E-18 -6.131784E-01  0.000000E+00
  8.061050E-01  5.192771E-02  5.000000E-01  8.142474E-01  5.247901E-02  0.000000E+00 -1.659338E-03  1.636870E-04 -2.072123E-19 -6.841252E-01  0.000000E+00
  7.915460E-01  5.318947E-02  5.000000E-01  7.995413E-01  5.375352E-02  0.000000E+00  9.867173E-04 -5.277683E-05  1.364945E-18 -8.106496E-01  0.000000E+00
  7.763770E-01  5.405855E-02  5.000000E-01  7.842192E-01  5.463138E-02  0.000000E+00  6.008035E-03 -2.208269E-04  2.445429E-18 -9.526479E-01  0.000000E+00
  7.606070E-01  5.460404E-02  5.000000E-01  7.682899E-01  5.518237E-02  0.000000E+00  1.266900E-02 -2.415567E-04  2.566195E-18 -1.051476E+00  0.000000E+00
  7.442510E-01  5.483052E-02  5.000000E-01  7.517687E-01  5.541115E-02  0.000000E+00  1.855822E-02 -5.285936E-05  1.579203E-19 -1.082465E+00  0.000000E+00
  7.273250E-01  5.475125E-02  5.000000E-01  7.346718E-01  5.533108E-02  0.000000E+00  2.158004E-02  2.595854E-04 -4.690521E-18 -1.066704E+00  0.000000E+00
  7.098490E-01  5.441197E-02  5.000000E-01  7.170193E-01  5.498837E-02  0.000000E+00  2.178812E-02  5.117721E-04 -8.676887E-18 -1.039002E+00  0.000000E+00
  6.918480E-01  5.389974E-02  5.000000E-01  6.988365E-01  5.447096E-02  0.000000E+00  2.060540E-02  5.894658E-04 -1.002788E-17 -1.023778E+00  0.000000E+00
  6.733520E-01  5.335373E-02  5.000000E-01  6.801537E-01  5.391944E-02  0.000000E+00  1.933243E-02  4.813148E-04 -9.443042E-18 -1.032010E+00  0.000000E+00
  6.543930E-01  5.296182E-02  5.000000E-01  6.610033E-01  5.352357E-02  0.000000E+00  1.865512E-02  2.497129E-04 -7.378037E-18 -1.061493E+00  0.000000E+00
  6.350090E-01  5.284621E-02  5.000000E-01  6.414235E-01  5.340679E-02  0.000000E+00  1.879323E-02  4.607731E-07 -5.812808E-18 -1.099023E+00  0.000000E+00
  6.152440E-01  5.296752E-02  5.000000E-01  6.214589E-01  5.352933E-02  0.000000E+00  1.957019E-02 -1.970906E-04 -5.858461E-18 -1.131735E+00  0.000000E+00
  5.951420E-01  5.324969E-02  5.000000E-01  6.011539E-01  5.381434E-02  0.000000E+00  2.058658E-02 -3.201935E-04 -7.011032E-18 -1.153289E+00  0.000000E+00
  5.747530E-01  5.359976E-02  5.000000E-01  5.805590E-01  5.416795E-02  0.000000E+00  2.150989E-02 -3.454321E-04 -9.367217E-18 -1.161316E+00  0.000000E+00
  5.541290E-01  5.391312E-02  5.000000E-01  5.597267E-01  5.448448E-02  0.000000E+00  2.218078E-02 -2.591610E-04 -1.091473E-17 -1.156451E+00  0.000000E+00
  5.333260E-01  5.408609E-02  5.000000E-01  5.387136E-01  5.465920E-02  0.000000E+00  2.255580E-02 -9.405024E-05 -1.138154E-17 -1.142923E+00  0.000000E+00
  5.124010E-01  5.408464E-02  5.000000E-01  5.175773E-01  5.465773E-02  0.000000E+00  2.267850E-02  9.542613E-05 -1.174215E-17 -1.126051E+00  0.000000E+00
  4.914140E-01  5.390749E-02  5.000000E-01  4.963784E-01  5.447879E-02  0.000000E+00  2.266658E-02  2.843679E-04 -1.089032E-17 -1.108738E+00  0.000000E+00
  4.704230E-01  5.355706E-02  5.000000E-01  4.751754E-01  5.412482E-02  0.000000E+00  2.262444E-02  4.679117E-04 -9.888256E-18 -1.092085E+00  0.000000E+00
  1.696960E-04 -4.669395E-04  5.000000E-01  1.730287E-04 -4.447603E-04  0.000000E+00 -6.447363E-02  9.225528E-02 -4.383445E-14  5.550849E-01  0.000000E+00
  8.054360E-04 -9.559761E-04  5.000000E-01  8.151890E-04 -9.387356E-04  0.000000E+00 -4.669461E-02  3.212586E-02 -3.411024E-14  1.115534E+00  0.000000E+00
  1.973980E-03 -1.547597E-03  5.000000E-01  1.995534E-03 -1.536331E-03  0.000000E+00 -2.060406E-02  9.993259E-03 -1.875900E-14  1.177989E+00  0.000000E+00
  3.614630E-03 -2.240015E-03  5.000000E-01  3.652753E-03 -2.235742E-03  0.000000E+00 -3.589921E-03  1.531052E-03 -6.402101E-15  1.149963E+00  0.000000E+00
  5.721210E-03 -3.041212E-03  5.000000E-01  5.780607E-03 -3.045030E-03  0.000000E+00  5.434964E-03 -1.943336E-03 -8.655880E-18  1.117154E+00  0.000000E+00
  8.297500E-03 -3.948196E-03  5.000000E-01  8.382914E-03 -3.961174E-03  0.000000E+00  9.687194E-03 -3.251220E-03  1.654550E-15  1.071149E+00  0.000000E+00
  1.136560E-02 -4.940817E-03  5.000000E-01  1.148200E-02 -4.963819E-03  0.000000E+00  1.140334E-02 -3.546753E-03  1.209283E-15  1.015624E+00  0.000000E+00
  1.493280E-02 -6.007631E-03  5.000000E-01  1.508522E-02 -6.041407E-03  0.000000E+00  1.195569E-02 -3.480975E-03  4.557805E-16  9.606378E-01  0.000000E+00
  1.899460E-02 -7.156928E-03  5.000000E-01  1.918804E-02 -7.202310E-03  0.000000E+00  1.217956E-02 -3.391649E-03  3.184414E-17  9.100028E-01  0.000000E+00
  2.354800E-02 -8.404716E-03  5.000000E-01  2.378743E-02 -8.462700E-03  0.000000E+00  1.248822E-02 -3.367245E-03 -8.109274E-17  8.605426E-01  0.000000E+00
  2.860130E-02 -9.746613E-03  5.000000E-01  2.889176E-02 -9.818149E-03  0.000000E+00  1.299301E-02 -3.388178E-03 -5.940381E-17  8.095459E-01  0.000000E+00
  3.416500E-02 -1.117186E-02  5.000000E-01  3.451165E-02 -1.125779E-02  0.000000E+00  1.366968E-02 -3.434881E-03 -2.029860E-17  7.582717E-01  0.000000E+00
  4.024810E-02 -1.267179E-02  5.000000E-01  4.065618E-02 -1.277287E-02  0.000000E+00  1.445655E-02 -3.488922E-03 -2.648543E-19  7.076610E-01  0.000000E+00
  4.686030E-02 -1.423485E-02  5.000000E-01  4.733516E-02 -1.435171E-02  0.000000E+00  1.528870E-02 -3.532050E-03  4.236911E-18  6.575057E-01  0.000000E+00
  5.401090E-02 -1.585027E-02  5.000000E-01  5.455797E-02 -1.598345E-02  0.000000E+00  1.612044E-02 -3.557460E-03  2.480793E-18  6.078741E-01  0.000000E+00
  6.170850E-02 -1.751051E-02  5.000000E-01  6.233331E-02 -1.766045E-02  0.000000E+00  1.692744E-02 -3.558173E-03  1.293783E-18  5.584073E-01  0.000000E+00
  6.996310E-02 -1.920264E-02  5.000000E-01  7.067127E-02 -1.936967E-02  0.000000E+00  1.769669E-02 -3.522922E-03  9.706172E-19  5.084357E-01  0.000000E+00
  7.878500E-02 -2.090876E-02  5.000000E-01  7.958226E-02 -2.109303E-02  0.000000E+00  1.842518E-02 -3.449026E-03  6.153278E-21  4.581869E-01  0.000000E+00
  8.818390E-02 -2.261183E-02  5.000000E-01  8.907608E-02 -2.281329E-02  0.000000E+00  1.911408E-02 -3.337426E-03  3.911787E-20  4.081203E-01  0.000000E+00
  9.816930E-02 -2.429180E-02  5.000000E-01  9.916232E-02 -2.451023E-02  0.000000E+00  1.975777E-02 -3.184684E-03  1.096542E-18  3.583223E-01  0.000000E+00
  1.087500E-01 -2.592491E-02  5.000000E-01  1.098499E-01 -2.615983E-02  0.000000E+00  2.034082E-02 -2.988825E-03  1.477755E-19  3.092170E-01  0.000000E+00
  1.199340E-01 -2.748754E-02  5.000000E-01  1.211468E-01 -2.773824E-02  0.000000E+00  2.083183E-02 -2.746898E-03 -8.032514E-19  2.614698E-01  0.000000E+00
  1.317280E-01 -2.895216E-02  5.000000E-01  1.330599E-01 -2.921765E-02  0.000000E+00  2.117856E-02 -2.452744E-03  1.234240E-19  2.158182E-01  0.000000E+00
  1.441380E-01 -3.028699E-02  5.000000E-01  1.455953E-01 -3.056596E-02  0.000000E+00  2.132408E-02 -2.108340E-03  1.225004E-18  1.737841E-01  0.000000E+00
  1.441380E-01 -3.028699E-02  5.000000E-01  1.455953E-01 -3.056596E-02  0.000000E+00  2.132408E-02 -2.108340E-03  1.225004E-18  1.737841E-01  0.000000E+00
  1.571670E-01 -3.146214E-02  5.000000E-01  1.587558E-01 -3.175298E-02  0.000000E+00  2.123520E-02 -1.727407E-03  1.333316E-18  1.374711E-01  0.000000E+00
  1.708170E-01 -3.245036E-02  5.000000E-01  1.725437E-01 -3.275118E-02  0.000000E+00  2.093725E-02 -1.336509E-03  5.338613E-19  1.089129E-01  0.000000E+00
  1.850860E-01 -3.323614E-02  5.000000E-01  1.869568E-01 -3.354489E-02  0.000000E+00  2.054025E-02 -9.819014E-04  4.505729E-19  8.961239E-02  0.000000E+00
  1.999720E-01 -3.383538E-02  5.000000E-01  2.019931E-01 -3.415019E-02  0.000000E+00  2.021963E-02 -7.235817E-04  2.479379E-19  7.954327E-02  0.000000E+00
  2.154670E-01 -3.431742E-02  5.000000E-01  2.176446E-01 -3.463709E-02  0.000000E+00  2.011286E-02 -5.832228E-04  8.817244E-20  7.406846E-02  0.000000E+00
  2.315610E-01 -3.475225E-02  5.000000E-01  2.339011E-01 -3.507631E-02  0.000000E+00  2.021254E-02 -4.992325E-04  1.011999E-18  6.347536E-02  0.000000E+00
  2.482400E-01 -3.512986E-02  5.000000E-01  2.507486E-01 -3.545773E-02  0.000000E+00  2.042656E-02 -4.027608E-04  1.326947E-18  4.261663E-02  0.000000E+00
  2.654840E-01 -3.542113E-02  5.000000E-01  2.681667E-01 -3.575195E-02  0.000000E+00  2.066606E-02 -2.697754E-04  5.836158E-19  1.453873E-02  0.000000E+00
  2.832720E-01 -3.558551E-02  5.000000E-01  2.861343E-01 -3.591799E-02  0.000000E+00  2.084048E-02 -9.131832E-05  1.358474E-19 -1.570748E-02  0.000000E+00
  3.015770E-01 -3.557680E-02  5.000000E-01  3.046242E-01 -3.590919E-02  0.000000E+00  2.085971E-02  1.323783E-04 -4.453548E-19 -4.381959E-02  0.000000E+00
  3.203660E-01 -3.534692E-02  5.000000E-01  3.236030E-01 -3.567699E-02  0.000000E+00  2.065713E-02  3.917918E-04 -8.908872E-19 -6.656368E-02  0.000000E+00
  3.396030E-01 -3.485012E-02  5.000000E-01  3.430342E-01 -3.517517E-02  0.000000E+00  2.022950E-02  6.588553E-04 -5.294427E-19 -8.076111E-02  0.000000E+00
  3.592490E-01 -3.407241E-02  5.000000E-01  3.628786E-01 -3.438961E-02  0.000000E+00  1.964366E-02  8.964705E-04  5.904911E-19 -8.411461E-02  0.000000E+00
  3.792580E-01 -3.303276E-02  5.000000E-01  3.830897E-01 -3.333946E-02  0.000000E+00  1.898964E-02  1.087081E-03  8.987270E-19 -7.762236E-02  0.000000E+00
  3.995810E-01 -3.175812E-02  5.000000E-01  4.036179E-01 -3.205195E-02  0.000000E+00  1.834585E-02  1.231481E-03  3.852248E-20 -6.469567E-02  0.000000E+00
  4.201670E-01 -3.028301E-02  5.000000E-01  4.244118E-01 -3.056194E-02  0.000000E+00  1.776646E-02  1.334969E-03  1.332476E-19 -4.877059E-02  0.000000E+00
  4.409600E-01 -2.864657E-02  5.000000E-01  4.454148E-01 -2.890897E-02  0.000000E+00  1.726515E-02  1.407724E-03  6.844887E-19 -3.255178E-02  0.000000E+00
  4.619030E-01 -2.687959E-02  5.000000E-01  4.665693E-01 -2.712415E-02  0.000000E+00  1.680513E-02  1.467446E-03 -4.646245E-19 -1.799729E-02  0.000000E+00
  4.829360E-01 -2.498091E-02  5.000000E-01  4.878147E-01 -2.520630E-02  0.000000E+00  1.632658E-02  1.524604E-03 -1.133398E-18 -4.906680E-03  0.000000E+00
  5.039990E-01 -2.294639E-02  5.000000E-01  5.090904E-01 -2.315123E-02  0.000000E+00  1.578249E-02  1.574779E-03 -3.637890E-19  9.146526E-03  0.000000E+00
  5.250310E-01 -2.077736E-02  5.000000E-01  5.303348E-01 -2.096029E-02  0.000000E+00  1.514714E-02  1.611491E-03  6.524117E-19  2.633998E-02  0.000000E+00
  5.459710E-01 -1.847802E-02  5.000000E-01  5.514863E-01 -1.863773E-02  0.000000E+00  1.442314E-02  1.630104E-03  5.148675E-19  4.753804E-02  0.000000E+00
  5.667600E-01 -1.605715E-02  5.000000E-01  5.724853E-01 -1.619241E-02  0.000000E+00  1.365563E-02  1.620482E-03 -6.284077E-19  7.325597E-02  0.000000E+00
  4.704230E-01  5.355706E-02  5.000000E-01  4.751754E-01  5.412482E-02  0.000000E+00  2.262444E-02  4.679117E-04 -9.888256E-18 -1.092085E+00  0.000000E+00
  4.494880E-01  5.304009E-02  5.000000E-01  4.540289E-01  5.360263E-02  0.000000E+00  2.260099E-02  6.445758E-04 -9.704348E-18 -1.076535E+00  0.000000E+00
  4.286690E-01  5.236647E-02  5.000000E-01  4.329997E-01  5.292220E-02  0.000000E+00  2.260533E-02  8.142174E-04 -9.965308E-18 -1.062213E+00  0.000000E+00
  4.080230E-01  5.154727E-02  5.000000E-01  4.121452E-01  5.209473E-02  0.000000E+00  2.263045E-02  9.775960E-04 -1.012971E-17 -1.049118E+00  0.000000E+00
  3.876050E-01  5.059352E-02  5.000000E-01  3.915210E-01  5.113135E-02  0.000000E+00  2.266670E-02  1.134394E-03 -1.012071E-17 -1.037340E+00  0.000000E+00
  3.674690E-01  4.951859E-02  5.000000E-01  3.711816E-01  5.004556E-02  0.000000E+00  2.270812E-02  1.282863E-03 -1.093853E-17 -1.027101E+00  0.000000E+00
  3.476650E-01  4.833800E-02  5.000000E-01  3.511776E-01  4.885305E-02  0.000000E+00  2.275572E-02  1.422050E-03 -1.102652E-17 -1.018581E+00  0.000000E+00
  3.282390E-01  4.706793E-02  5.000000E-01  3.315555E-01  4.757016E-02  0.000000E+00  2.281598E-02  1.553684E-03 -1.052636E-17 -1.011724E+00  0.000000E+00
  3.092330E-01  4.572208E-02  5.000000E-01  3.123575E-01  4.621071E-02  0.000000E+00  2.289478E-02  1.681571E-03 -1.020206E-17 -1.006248E+00  0.000000E+00
  2.906860E-01  4.431104E-02  5.000000E-01  2.936232E-01  4.478543E-02  0.000000E+00  2.299105E-02  1.808882E-03 -1.002790E-17 -1.001819E+00  0.000000E+00
  2.726330E-01  4.284384E-02  5.000000E-01  2.753879E-01  4.330341E-02  0.000000E+00  2.309789E-02  1.937899E-03 -1.053117E-17 -9.981035E-01  0.000000E+00
  2.551020E-01  4.132703E-02  5.000000E-01  2.576799E-01  4.177128E-02  0.000000E+00  2.320775E-02  2.071129E-03 -1.007788E-17 -9.947302E-01  0.000000E+00
  2.381210E-01  3.976588E-02  5.000000E-01  2.405274E-01  4.019437E-02  0.000000E+00  2.331708E-02  2.213030E-03 -9.462449E-18 -9.912997E-01  0.000000E+00
  2.217090E-01  3.816085E-02  5.000000E-01  2.239496E-01  3.857313E-02  0.000000E+00  2.342123E-02  2.365949E-03 -9.114266E-18 -9.878774E-01  0.000000E+00
  2.058840E-01  3.651213E-02  5.000000E-01  2.079648E-01  3.690776E-02  0.000000E+00  2.350073E-02  2.512526E-03 -7.874000E-18 -9.862223E-01  0.000000E+00
  1.906600E-01  3.484110E-02  5.000000E-01  1.925871E-01  3.521985E-02  0.000000E+00  2.354767E-02  2.622596E-03 -7.834401E-18 -9.891106E-01  0.000000E+00
  1.760460E-01  3.318793E-02  5.000000E-01  1.778255E-01  3.354999E-02  0.000000E+00  2.361788E-02  2.700554E-03 -8.954966E-18 -9.968973E-01  0.000000E+00
  1.620500E-01  3.157049E-02  5.000000E-01  1.636881E-01  3.191622E-02  0.000000E+00  2.378687E-02  2.782041E-03 -1.036959E-17 -1.007229E+00  0.000000E+00
  1.486750E-01  2.998843E-02  5.000000E-01  1.501781E-01  3.031817E-02  0.000000E+00  2.406968E-02  2.891904E-03 -1.303784E-17 -1.017688E+00  0.000000E+00
  1.359210E-01  2.843319E-02  5.000000E-01  1.372953E-01  2.874723E-02  0.000000E+00  2.442190E-02  3.036255E-03 -1.622446E-17 -1.026912E+00  0.000000E+00
  1.237890E-01  2.689668E-02  5.000000E-01  1.250407E-01  2.719520E-02  0.000000E+00  2.478405E-02  3.212399E-03 -2.081102E-17 -1.034479E+00  0.000000E+00
  1.122730E-01  2.537051E-02  5.000000E-01  1.134085E-01  2.565362E-02  0.000000E+00  2.511424E-02  3.415635E-03 -3.001868E-17 -1.040587E+00  0.000000E+00
  1.013710E-01  2.385020E-02  5.000000E-01  1.023964E-01  2.411795E-02  0.000000E+00  2.539487E-02  3.639920E-03 -4.955380E-17 -1.045861E+00  0.000000E+00
  9.107400E-02  2.233474E-02  5.000000E-01  9.199536E-02  2.258719E-02  0.000000E+00  2.563084E-02  3.884698E-03 -9.076576E-17 -1.050852E+00  0.000000E+00
  9.107400E-02  2.233474E-02  5.000000E-01  9.199536E-02  2.258719E-02  0.000000E+00  2.563084E-02  3.884698E-03 -9.076576E-17 -1.050852E+00  0.000000E+00
  8.137660E-02  2.082281E-02  5.000000E-01  8.220003E-02  2.105999E-02  0.000000E+00  2.582955E-02  4.148522E-03 -1.742620E-16 -1.056266E+00  0.000000E+00
  7.227050E-02  1.931749E-02  5.000000E-01  7.300197E-02  1.953947E-02  0.000000E+00  2.599435E-02  4.425726E-03 -3.412307E-16 -1.063073E+00  0.000000E+00
  6.374670E-02  1.782434E-02  5.000000E-01  6.439209E-02  1.803124E-02  0.000000E+00  2.613528E-02  4.717747E-03 -6.733645E-16 -1.071905E+00  0.000000E+00
  5.579720E-02  1.634705E-02  5.000000E-01  5.636231E-02  1.653903E-02  0.000000E+00  2.625296E-02  5.021213E-03 -1.317831E-15 -1.083634E+00  0.000000E+00
  4.841260E-02  1.489434E-02  5.000000E-01  4.890313E-02  1.507165E-02  0.000000E+00  2.634610E-02  5.331462E-03 -2.530077E-15 -1.099217E+00  0.000000E+00
  4.158390E-02  1.347414E-02  5.000000E-01  4.200547E-02  1.363710E-02  0.000000E+00  2.642075E-02  5.655628E-03 -4.696377E-15 -1.119023E+00  0.000000E+00
  3.530370E-02  1.209144E-02  5.000000E-01  3.566185E-02  1.224045E-02  0.000000E+00  2.645983E-02  5.989265E-03 -8.280551E-15 -1.143875E+00  0.000000E+00
  2.956270E-02  1.075581E-02  5.000000E-01  2.986287E-02  1.089132E-02  0.000000E+00  2.643929E-02  6.328782E-03 -1.361293E-14 -1.174432E+00  0.000000E+00
  2.435310E-02  9.473886E-03  5.000000E-01  2.460066E-02  9.596457E-03  0.000000E+00  2.632419E-02  6.688046E-03 -2.041289E-14 -1.210114E+00  0.000000E+00
  1.967110E-02  8.246402E-03  5.000000E-01  1.987138E-02  8.356576E-03  0.000000E+00  2.598750E-02  7.040102E-03 -2.721954E-14 -1.251257E+00  0.000000E+00
  1.550860E-02  7.080714E-03  5.000000E-01  1.566684E-02  7.179116E-03  0.000000E+00  2.525663E-02  7.338703E-03 -3.140252E-14 -1.298205E+00  0.000000E+00
  1.185930E-02  5.980814E-03  5.000000E-01  1.198068E-02  6.068108E-03  0.000000E+00  2.402469E-02  7.576695E-03 -3.029150E-14 -1.349159E+00  0.000000E+00
  8.724160E-03  4.943427E-03  5.000000E-01  8.813883E-03  5.020245E-03  0.000000E+00  2.237787E-02  7.770880E-03 -2.309738E-14 -1.403830E+00  0.000000E+00
  6.091130E-03  3.977204E-03  5.000000E-01  6.154263E-03  4.044264E-03  0.000000E+00  2.112854E-02  8.288272E-03 -1.275230E-14 -1.457909E+00  0.000000E+00
  3.952840E-03  3.085499E-03  5.000000E-01  3.994378E-03  3.143554E-03  0.000000E+00  2.178116E-02  1.020177E-02 -5.002847E-15 -1.494320E+00  0.000000E+00
  2.330070E-03  2.256557E-03  5.000000E-01  2.355220E-03  2.306240E-03  0.000000E+00  2.458787E-02  1.460739E-02 -3.544017E-15 -1.501100E+00  0.000000E+00
  1.198080E-03  1.509028E-03  5.000000E-01  1.211798E-03  1.551162E-03  0.000000E+00  2.761579E-02  2.166051E-02 -7.161584E-15 -1.487889E+00  0.000000E+00
  5.019560E-04  8.761460E-04  5.000000E-01  5.086442E-04  9.118888E-04  0.000000E+00  3.000971E-02  3.328032E-02 -1.272981E-14 -1.499589E+00  0.000000E+00
  1.313430E-04  3.892106E-04  5.000000E-01  1.342884E-04  4.200359E-04  0.000000E+00  3.412949E-02  6.860716E-02 -1.851974E-14 -1.541529E+00  0.000000E+00
  8.078190E-06  7.984843E-05  5.000000E-01  9.778777E-06  1.075495E-04  0.000000E+00  2.960270E-02  1.707109E-01 -2.567013E-14 -1.474791E+00  0.000000E+00
 -1.602820E-06 -2.662582E-05  5.000000E-01  0.000000E+00  0.000000E+00  0.000000E+00 -5.239755E-03  2.511892E-01 -3.353995E-14 -1.185012E+00  0.000000E+00
  9.141860E-06 -1.364802E-04  5.000000E-01  1.085319E-05 -1.109638E-04  0.000000E+00 -4.986290E-02  1.968263E-01 -4.147975E-14 -4.558153E-01  0.000000E+00