 Title = "ADflow Slice Data"
Variables =  "CoordinateX"  "CoordinateY"  "CoordinateZ"  "XoC"  "YoC"  "ZoC" "VelocityX" "VelocityY" "VelocityZ" "CoefPressure" "Mach" 
Zone T= "Slice_0001 None Absolute Regular z = 0.50000000"
 Nodes =          192  Elements=          184  ZONETYPE=FELINESEG
 DATAPACKING=POINT
  5.667600E-01 -1.511638E-02  5.000000E-01  5.724853E-01 -1.523025E-02  0.000000E+00  1.340859E-02  1.529982E-03  1.181449E-19  1.000404E-01  0.000000E+00
  5.873410E-01 -1.275461E-02  5.000000E-01  5.932741E-01 -1.284462E-02  0.000000E+00  1.290252E-02  1.479495E-03 -5.914977E-19  1.230127E-01  0.000000E+00
  6.076580E-01 -1.042689E-02  5.000000E-01  6.137963E-01 -1.049340E-02  0.000000E+00  1.245811E-02  1.418093E-03  9.061521E-19  1.449539E-01  0.000000E+00
  6.276600E-01 -8.165710E-03  5.000000E-01  6.340003E-01 -8.209377E-03  0.000000E+00  1.207333E-02  1.349983E-03  1.529183E-18  1.652689E-01  0.000000E+00
  6.472970E-01 -5.995515E-03  5.000000E-01  6.538356E-01 -6.017266E-03  0.000000E+00  1.173881E-02  1.280110E-03  1.210744E-18  1.835942E-01  0.000000E+00
  6.665260E-01 -3.928161E-03  5.000000E-01  6.732588E-01 -3.929034E-03  0.000000E+00  1.144435E-02  1.211014E-03  1.125440E-18  2.001369E-01  0.000000E+00
  6.853050E-01 -1.973296E-03  5.000000E-01  6.922274E-01 -1.954427E-03  0.000000E+00  1.118378E-02  1.140176E-03 -1.061950E-18  2.156889E-01  0.000000E+00
  7.035980E-01 -1.480202E-04  5.000000E-01  7.107052E-01 -1.107179E-04  0.000000E+00  1.094696E-02  1.064982E-03 -2.334303E-18  2.305924E-01  0.000000E+00
  7.213750E-01  1.535844E-03  5.000000E-01  7.286617E-01  1.590152E-03  0.000000E+00  1.071108E-02  9.858275E-04 -9.811453E-19  2.445185E-01  0.000000E+00
  7.386080E-01  3.074121E-03  5.000000E-01  7.460687E-01  3.143963E-03  0.000000E+00  1.044712E-02  9.048154E-04 -1.091451E-18  2.573962E-01  0.000000E+00
  7.552750E-01  4.471985E-03  5.000000E-01  7.629040E-01  4.555944E-03  0.000000E+00  1.013694E-02  8.261722E-04 -1.859762E-18  2.696573E-01  0.000000E+00
  7.713580E-01  5.742321E-03  5.000000E-01  7.791495E-01  5.839109E-03  0.000000E+00  9.793307E-03  7.516955E-04 -9.514997E-19  2.818607E-01  0.000000E+00
  7.868410E-01  6.896131E-03  5.000000E-01  7.947888E-01  7.004571E-03  0.000000E+00  9.483213E-03  6.640521E-04 -1.173492E-18  2.957301E-01  0.000000E+00
  8.017160E-01  7.873444E-03  5.000000E-01  8.098140E-01  7.991754E-03  0.000000E+00  9.307832E-03  5.403455E-04 -2.710799E-18  3.116042E-01  0.000000E+00
  8.159740E-01  8.590867E-03  5.000000E-01  8.242160E-01  8.716422E-03  0.000000E+00  9.330849E-03  3.860205E-04 -2.796642E-18  3.245152E-01  0.000000E+00
  8.296120E-01  9.030736E-03  5.000000E-01  8.379918E-01  9.160733E-03  0.000000E+00  9.556073E-03  2.187355E-04 -2.941217E-18  3.295942E-01  0.000000E+00
  8.426300E-01  9.209289E-03  5.000000E-01  8.511412E-01  9.341090E-03  0.000000E+00  9.960102E-03  4.530757E-05 -3.010145E-18  3.267838E-01  0.000000E+00
  8.550290E-01  9.157883E-03  5.000000E-01  8.636654E-01  9.289164E-03  0.000000E+00  1.051467E-02 -1.332662E-04 -1.480735E-18  3.180691E-01  0.000000E+00
  8.668160E-01  8.914230E-03  5.000000E-01  8.755715E-01  9.043051E-03  0.000000E+00  1.119084E-02 -3.158427E-04  7.157717E-19  3.047997E-01  0.000000E+00
  8.779950E-01  8.519586E-03  5.000000E-01  8.868634E-01  8.644421E-03  0.000000E+00  1.195877E-02 -4.998660E-04  1.493287E-18  2.875361E-01  0.000000E+00
  8.885730E-01  8.013214E-03  5.000000E-01  8.975482E-01  8.132935E-03  0.000000E+00  1.278916E-02 -6.827593E-04  9.058068E-19  2.668662E-01  0.000000E+00
  8.985610E-01  7.428480E-03  5.000000E-01  9.076371E-01  7.542297E-03  0.000000E+00  1.364941E-02 -8.577741E-04  1.186436E-18  2.433115E-01  0.000000E+00
  9.079670E-01  6.799155E-03  5.000000E-01  9.171381E-01  6.906616E-03  0.000000E+00  1.450024E-02 -1.012541E-03  1.159718E-18  2.173340E-01  0.000000E+00
  9.168010E-01  6.157743E-03  5.000000E-01  9.260613E-01  6.258726E-03  0.000000E+00  1.530405E-02 -1.137916E-03  1.292020E-18  1.899913E-01  0.000000E+00
  9.168010E-01  6.157743E-03  5.000000E-01  9.260613E-01  6.258726E-03  0.000000E+00  1.530405E-02 -1.137916E-03  1.292020E-18  1.899913E-01  0.000000E+00
  9.250730E-01  5.529045E-03  5.000000E-01  9.344168E-01  5.623679E-03  0.000000E+00  1.603763E-02 -1.235131E-03  1.684515E-18  1.628083E-01  0.000000E+00
  9.327940E-01  4.927301E-03  5.000000E-01  9.422158E-01  5.015858E-03  0.000000E+00  1.670048E-02 -1.315887E-03  1.453130E-18  1.370984E-01  0.000000E+00
  9.399760E-01  4.355786E-03  5.000000E-01  9.494703E-01  4.438572E-03  0.000000E+00  1.730882E-02 -1.391724E-03  1.559342E-18  1.131305E-01  0.000000E+00
  9.466320E-01  3.815203E-03  5.000000E-01  9.561935E-01  3.892529E-03  0.000000E+00  1.788281E-02 -1.467173E-03  2.652769E-18  9.016669E-02  0.000000E+00
  9.527730E-01  3.306373E-03  5.000000E-01  9.623965E-01  3.378561E-03  0.000000E+00  1.844715E-02 -1.548727E-03  6.229716E-18  6.766753E-02  0.000000E+00
  9.584110E-01  2.827156E-03  5.000000E-01  9.680915E-01  2.894504E-03  0.000000E+00  1.903453E-02 -1.647033E-03  5.937761E-18  4.540056E-02  0.000000E+00
  9.635570E-01  2.374319E-03  5.000000E-01  9.732895E-01  2.437094E-03  0.000000E+00  1.967885E-02 -1.767974E-03 -1.236204E-17  2.264806E-02  0.000000E+00
  9.682220E-01  1.946793E-03  5.000000E-01  9.780016E-01  2.005251E-03  0.000000E+00  2.041225E-02 -1.912184E-03 -5.157481E-17 -1.678563E-03  0.000000E+00
  9.724140E-01  1.545859E-03  5.000000E-01  9.822359E-01  1.600268E-03  0.000000E+00  2.128274E-02 -2.087670E-03 -5.757035E-17 -2.820993E-02  0.000000E+00
  9.761430E-01  1.171440E-03  5.000000E-01  9.860026E-01  1.222068E-03  0.000000E+00  2.237246E-02 -2.311592E-03  1.098726E-16 -5.739832E-02  0.000000E+00
  9.794160E-01  8.242704E-04  5.000000E-01  9.893086E-01  8.713918E-04  0.000000E+00  2.378342E-02 -2.597375E-03  5.210642E-16 -9.032500E-02  0.000000E+00
  9.822400E-01  5.074293E-04  5.000000E-01  9.921611E-01  5.513509E-04  0.000000E+00  2.556655E-02 -2.947213E-03  6.994624E-16 -1.284433E-01  0.000000E+00
  9.846200E-01  2.260650E-04  5.000000E-01  9.945652E-01  2.671452E-04  0.000000E+00  2.759083E-02 -3.347888E-03 -8.149632E-16 -1.721024E-01  0.000000E+00
  9.865620E-01 -1.453607E-05  5.000000E-01  9.965268E-01  2.411427E-05  0.000000E+00  2.940989E-02 -3.711618E-03 -5.356171E-15 -2.194117E-01  0.000000E+00
  9.880680E-01 -2.086060E-04  5.000000E-01  9.980480E-01 -1.719155E-04  0.000000E+00  2.987597E-02 -3.826747E-03 -9.322857E-15 -2.766213E-01  0.000000E+00
  9.891420E-01 -3.514239E-04  5.000000E-01  9.991328E-01 -3.161758E-04  0.000000E+00  2.812889E-02 -3.911200E-03  3.224565E-15 -3.435070E-01  0.000000E+00
  9.897860E-01 -4.389487E-04  5.000000E-01  9.997833E-01 -4.045844E-04  0.000000E+00  3.788678E-02 -4.013342E-03  5.268962E-14 -2.894041E-01  0.000000E+00
  9.900000E-01 -4.683023E-04  5.000000E-01  9.999995E-01 -4.342344E-04  0.000000E+00  2.618884E-02  5.267631E-03  4.803044E-14 -5.820308E-01  0.000000E+00
  9.900000E-01 -1.843754E-04  5.000000E-01  9.999995E-01 -1.474402E-04  0.000000E+00  1.229807E-03 -7.885300E-03  5.487065E-15 -8.088254E-01  0.000000E+00
  9.900000E-01  9.955150E-05  5.000000E-01  9.999995E-01  1.393540E-04  0.000000E+00 -4.468987E-04 -2.274884E-02  3.020043E-15 -6.283748E-01  0.000000E+00
  9.900000E-01  3.834784E-04  5.000000E-01  9.999995E-01  4.261482E-04  0.000000E+00 -1.436045E-04 -8.863028E-03  2.465695E-15 -6.283302E-01  0.000000E+00
  9.900000E-01  6.674053E-04  5.000000E-01  9.999995E-01  7.129424E-04  0.000000E+00  4.646671E-04 -5.229938E-03  2.910548E-15 -6.882112E-01  0.000000E+00
  9.900000E-01  9.513321E-04  5.000000E-01  9.999995E-01  9.997367E-04  0.000000E+00  6.797445E-03 -6.632485E-03  3.524864E-15 -6.299600E-01  0.000000E+00
  9.900000E-01  9.513321E-04  5.000000E-01  9.999995E-01  9.997367E-04  0.000000E+00  6.797445E-03 -6.632485E-03  3.524864E-15 -6.299600E-01  0.000000E+00
  9.897890E-01  1.017904E-03  5.000000E-01  9.997864E-01  1.066981E-03  0.000000E+00  9.015919E-03 -3.469641E-03  3.238927E-15 -5.523993E-01  0.000000E+00
  9.891540E-01  1.218674E-03  5.000000E-01  9.991450E-01  1.269778E-03  0.000000E+00  4.567887E-03 -1.351313E-03  2.077646E-15 -5.710016E-01  0.000000E+00
  9.880950E-01  1.555408E-03  5.000000E-01  9.980753E-01  1.609913E-03  0.000000E+00  3.024904E-03 -9.609600E-04  1.058918E-15 -5.705615E-01  0.000000E+00
  9.866100E-01  2.031333E-03  5.000000E-01  9.965753E-01  2.090644E-03  0.000000E+00  1.983874E-03 -6.498172E-04  4.634413E-16 -5.626614E-01  0.000000E+00
  9.846960E-01  2.650662E-03  5.000000E-01  9.946419E-01  2.716228E-03  0.000000E+00  9.960252E-04 -3.235009E-04  1.892550E-16 -5.590233E-01  0.000000E+00
  9.823490E-01  3.418251E-03  5.000000E-01  9.922712E-01  3.491569E-03  0.000000E+00  1.850998E-04 -5.922305E-05  7.093765E-17 -5.580436E-01  0.000000E+00
  9.795670E-01  4.338749E-03  5.000000E-01  9.894611E-01  4.421362E-03  0.000000E+00 -4.277252E-04  1.426970E-04  1.463931E-17 -5.582852E-01  0.000000E+00
  9.763420E-01  5.417935E-03  5.000000E-01  9.862036E-01  5.511447E-03  0.000000E+00 -8.715145E-04  2.932588E-04 -9.730173E-18 -5.597295E-01  0.000000E+00
  9.726710E-01  6.659544E-03  5.000000E-01  9.824955E-01  6.765595E-03  0.000000E+00 -1.170576E-03  3.976866E-04 -1.440089E-17 -5.622632E-01  0.000000E+00
  9.685460E-01  8.066753E-03  5.000000E-01  9.783288E-01  8.187015E-03  0.000000E+00 -1.342191E-03  4.594635E-04 -1.047554E-17 -5.654666E-01  0.000000E+00
  9.639600E-01  9.641708E-03  5.000000E-01  9.736965E-01  9.777875E-03  0.000000E+00 -1.402992E-03  4.831537E-04 -4.477006E-18 -5.688319E-01  0.000000E+00
  9.589060E-01  1.138655E-02  5.000000E-01  9.685915E-01  1.154034E-02  0.000000E+00 -1.373387E-03  4.750265E-04 -7.771675E-19 -5.718833E-01  0.000000E+00
  9.533750E-01  1.330247E-02  5.000000E-01  9.630046E-01  1.347561E-02  0.000000E+00 -1.279237E-03  4.434070E-04 -1.660440E-19 -5.742570E-01  0.000000E+00
  9.473580E-01  1.538822E-02  5.000000E-01  9.569269E-01  1.558242E-02  0.000000E+00 -1.150369E-03  3.984443E-04 -2.051747E-19 -5.757678E-01  0.000000E+00
  9.408450E-01  1.764046E-02  5.000000E-01  9.503481E-01  1.785740E-02  0.000000E+00 -1.016991E-03  3.508354E-04 -4.672254E-20 -5.764450E-01  0.000000E+00
  9.338260E-01  2.005390E-02  5.000000E-01  9.432582E-01  2.029522E-02  0.000000E+00 -9.058006E-04  3.100743E-04 -8.795326E-20 -5.765168E-01  0.000000E+00
  9.262910E-01  2.262011E-02  5.000000E-01  9.356471E-01  2.288734E-02  0.000000E+00 -8.373709E-04  2.831888E-04 -1.027190E-18 -5.763357E-01  0.000000E+00
  9.182290E-01  2.532625E-02  5.000000E-01  9.275037E-01  2.562081E-02  0.000000E+00 -8.256037E-04  2.742598E-04 -9.404139E-19 -5.762723E-01  0.000000E+00
  9.096280E-01  2.815462E-02  5.000000E-01  9.188158E-01  2.847775E-02  0.000000E+00 -8.781790E-04  2.845272E-04  2.209031E-19 -5.766872E-01  0.000000E+00
  9.004770E-01  3.108174E-02  5.000000E-01  9.095724E-01  3.143443E-02  0.000000E+00 -9.969220E-04  3.126128E-04 -1.990613E-19 -5.778955E-01  0.000000E+00
  8.907650E-01  3.407668E-02  5.000000E-01  8.997623E-01  3.445961E-02  0.000000E+00 -1.179046E-03  3.542003E-04 -6.501617E-19 -5.799827E-01  0.000000E+00
  8.804800E-01  3.709804E-02  5.000000E-01  8.893735E-01  3.751148E-02  0.000000E+00 -1.417730E-03  4.016314E-04 -2.472473E-18 -5.828490E-01  0.000000E+00
  8.696090E-01  4.009006E-02  5.000000E-01  8.783927E-01  4.053372E-02  0.000000E+00 -1.698712E-03  4.454721E-04 -2.775043E-18 -5.864296E-01  0.000000E+00
  8.696090E-01  4.009006E-02  5.000000E-01  8.783927E-01  4.053372E-02  0.000000E+00 -1.698712E-03  4.454721E-04 -2.775043E-18 -5.864296E-01  0.000000E+00
  8.581400E-01  4.298069E-02  5.000000E-01  8.668079E-01  4.345354E-02  0.000000E+00 -2.001984E-03  4.768021E-04 -1.777796E-18 -5.897383E-01  0.000000E+00
  8.460600E-01  4.568574E-02  5.000000E-01  8.546059E-01  4.618591E-02  0.000000E+00 -2.309785E-03  4.854788E-04 -2.184863E-18 -5.905752E-01  0.000000E+00
  8.333640E-01  4.812536E-02  5.000000E-01  8.417817E-01  4.865017E-02  0.000000E+00 -2.567185E-03  4.509420E-04 -1.200021E-18 -5.921215E-01  0.000000E+00
  8.200460E-01  5.022399E-02  5.000000E-01  8.283292E-01  5.077000E-02  0.000000E+00 -2.541246E-03  3.450106E-04 -2.635806E-19 -6.136075E-01  0.000000E+00
  8.061050E-01  5.191423E-02  5.000000E-01  8.142474E-01  5.247730E-02  0.000000E+00 -1.650931E-03  1.624238E-04  7.211348E-20 -6.842758E-01  0.000000E+00
  7.915460E-01  5.317035E-02  5.000000E-01  7.995413E-01  5.374610E-02  0.000000E+00  9.860244E-04 -5.216012E-05  1.237827E-18 -8.102117E-01  0.000000E+00
  7.763770E-01  5.403160E-02  5.000000E-01  7.842191E-01  5.461606E-02  0.000000E+00  5.981096E-03 -2.163260E-04  8.054719E-19 -9.515649E-01  0.000000E+00
  7.606070E-01  5.456733E-02  5.000000E-01  7.682899E-01  5.515719E-02  0.000000E+00  1.259898E-02 -2.330408E-04 -5.573384E-19 -1.050159E+00  0.000000E+00
  7.442510E-01  5.478482E-02  5.000000E-01  7.517687E-01  5.537688E-02  0.000000E+00  1.844836E-02 -4.585083E-05 -4.466790E-18 -1.081687E+00  0.000000E+00
  7.273250E-01  5.470188E-02  5.000000E-01  7.346718E-01  5.529310E-02  0.000000E+00  2.145713E-02  2.550889E-04 -1.100733E-17 -1.067441E+00  0.000000E+00
  7.098490E-01  5.437088E-02  5.000000E-01  7.170193E-01  5.495876E-02  0.000000E+00  2.168326E-02  4.866226E-04 -1.465591E-17 -1.042453E+00  0.000000E+00
  6.918480E-01  5.388775E-02  5.000000E-01  6.988365E-01  5.447076E-02  0.000000E+00  2.054340E-02  5.373187E-04 -1.460569E-17 -1.031314E+00  0.000000E+00
  6.733520E-01  5.340243E-02  5.000000E-01  6.801537E-01  5.398053E-02  0.000000E+00  1.933677E-02  3.966358E-04 -1.149303E-17 -1.044754E+00  0.000000E+00
  6.543930E-01  5.311423E-02  5.000000E-01  6.610032E-01  5.368942E-02  0.000000E+00  1.875926E-02  1.299873E-04 -8.327124E-18 -1.079321E+00  0.000000E+00
  6.350090E-01  5.314271E-02  5.000000E-01  6.414235E-01  5.371819E-02  0.000000E+00  1.903732E-02 -1.457239E-04 -6.010724E-18 -1.119686E+00  0.000000E+00
  6.152440E-01  5.342079E-02  5.000000E-01  6.214589E-01  5.399907E-02  0.000000E+00  1.996448E-02 -3.471316E-04 -4.658244E-18 -1.151353E+00  0.000000E+00
  5.951420E-01  5.383869E-02  5.000000E-01  6.011539E-01  5.442119E-02  0.000000E+00  2.108671E-02 -4.378307E-04 -5.021332E-18 -1.167369E+00  0.000000E+00
  5.747530E-01  5.426629E-02  5.000000E-01  5.805590E-01  5.485312E-02  0.000000E+00  2.203658E-02 -3.824423E-04 -6.170424E-18 -1.165275E+00  0.000000E+00
  5.541290E-01  5.455917E-02  5.000000E-01  5.597267E-01  5.514895E-02  0.000000E+00  2.264516E-02 -1.694473E-04 -7.425423E-18 -1.146501E+00  0.000000E+00
  5.333260E-01  5.457998E-02  5.000000E-01  5.387136E-01  5.516997E-02  0.000000E+00  2.285133E-02  1.291331E-04 -7.433727E-18 -1.118427E+00  0.000000E+00
  5.124010E-01  5.431796E-02  5.000000E-01  5.175773E-01  5.490530E-02  0.000000E+00  2.270551E-02  4.072199E-04 -7.122358E-18 -1.090563E+00  0.000000E+00
  4.914140E-01  5.382291E-02  5.000000E-01  4.963783E-01  5.440526E-02  0.000000E+00  2.239087E-02  6.209474E-04 -7.198062E-18 -1.068300E+00  0.000000E+00
  4.704230E-01  5.315041E-02  5.000000E-01  4.751754E-01  5.372596E-02  0.000000E+00  2.208569E-02  7.684479E-04 -6.754281E-18 -1.053679E+00  0.000000E+00
  1.696960E-04 -4.810646E-04  5.000000E-01  1.730287E-04 -4.471257E-04  0.000000E+00 -6.436971E-02  9.282412E-02 -6.673515E-14  5.408288E-01  0.000000E+00
  8.054360E-04 -9.782838E-04  5.000000E-01  8.151890E-04 -9.493662E-04  0.000000E+00 -4.693598E-02  3.286602E-02 -5.188921E-14  1.106784E+00  0.000000E+00
  1.973980E-03 -1.585261E-03  5.000000E-01  1.995534E-03 -1.562473E-03  0.000000E+00 -2.105418E-02  1.048194E-02 -2.858027E-14  1.176606E+00  0.000000E+00
  3.614630E-03 -2.299976E-03  5.000000E-01  3.652753E-03 -2.284406E-03  0.000000E+00 -4.058009E-03  1.774189E-03 -9.795982E-15  1.152940E+00  0.000000E+00
  5.721210E-03 -3.130856E-03  5.000000E-01  5.780607E-03 -3.123677E-03  0.000000E+00  5.018035E-03 -1.863189E-03 -5.707455E-17  1.122607E+00  0.000000E+00
  8.297500E-03 -4.075423E-03  5.000000E-01  8.382914E-03 -4.077783E-03  0.000000E+00  9.327893E-03 -3.267795E-03  2.488957E-15  1.078281E+00  0.000000E+00
  1.136560E-02 -5.114071E-03  5.000000E-01  1.148200E-02 -5.126920E-03  0.000000E+00  1.109650E-02 -3.619206E-03  1.820497E-15  1.023858E+00  0.000000E+00
  1.493280E-02 -6.235554E-03  5.000000E-01  1.508522E-02 -6.259728E-03  0.000000E+00  1.169223E-02 -3.584873E-03  6.800253E-16  9.693504E-01  0.000000E+00
  1.899460E-02 -7.448181E-03  5.000000E-01  1.918804E-02 -7.484602E-03  0.000000E+00  1.194876E-02 -3.515010E-03  4.302210E-17  9.186588E-01  0.000000E+00
  2.354800E-02 -8.768002E-03  5.000000E-01  2.378743E-02 -8.817751E-03  0.000000E+00  1.228326E-02 -3.507097E-03 -1.219913E-16  8.687777E-01  0.000000E+00
  2.860130E-02 -1.019053E-02  5.000000E-01  2.889176E-02 -1.025464E-02  0.000000E+00  1.281448E-02 -3.546147E-03 -8.873531E-17  8.170619E-01  0.000000E+00
  3.416500E-02 -1.170467E-02  5.000000E-01  3.451165E-02 -1.178408E-02  0.000000E+00  1.352400E-02 -3.613618E-03 -3.132978E-17  7.647354E-01  0.000000E+00
  4.024810E-02 -1.330125E-02  5.000000E-01  4.065618E-02 -1.339678E-02  0.000000E+00  1.435316E-02 -3.690304E-03 -1.918755E-18  7.127091E-01  0.000000E+00
  4.686030E-02 -1.496796E-02  5.000000E-01  4.733516E-02 -1.508032E-02  0.000000E+00  1.523757E-02 -3.756365E-03  6.633675E-18  6.607670E-01  0.000000E+00
  5.401090E-02 -1.669311E-02  5.000000E-01  5.455797E-02 -1.682289E-02  0.000000E+00  1.613051E-02 -3.803401E-03  5.587405E-18  6.089780E-01  0.000000E+00
  6.170850E-02 -1.846808E-02  5.000000E-01  6.233331E-02 -1.861579E-02  0.000000E+00  1.700634E-02 -3.823085E-03  1.794339E-18  5.569698E-01  0.000000E+00
  6.996310E-02 -2.027853E-02  5.000000E-01  7.067127E-02 -2.044453E-02  0.000000E+00  1.785131E-02 -3.802908E-03  2.401023E-19  5.040391E-01  0.000000E+00
  7.878500E-02 -2.210485E-02  5.000000E-01  7.958226E-02 -2.228929E-02  0.000000E+00  1.866230E-02 -3.739253E-03  4.983170E-19  4.503832E-01  0.000000E+00
  8.818390E-02 -2.392789E-02  5.000000E-01  8.907608E-02 -2.413074E-02  0.000000E+00  1.944074E-02 -3.632210E-03  1.166323E-19  3.964366E-01  0.000000E+00
  9.816930E-02 -2.572510E-02  5.000000E-01  9.916232E-02 -2.594610E-02  0.000000E+00  2.018117E-02 -3.477123E-03 -2.816208E-19  3.422596E-01  0.000000E+00
  1.087500E-01 -2.746962E-02  5.000000E-01  1.098499E-01 -2.770823E-02  0.000000E+00  2.086743E-02 -3.270510E-03  4.248074E-19  2.882743E-01  0.000000E+00
  1.199340E-01 -2.913411E-02  5.000000E-01  1.211468E-01 -2.938953E-02  0.000000E+00  2.146466E-02 -3.007348E-03 -3.130913E-20  2.351846E-01  0.000000E+00
  1.317280E-01 -3.068650E-02  5.000000E-01  1.330599E-01 -3.095761E-02  0.000000E+00  2.191220E-02 -2.678798E-03 -9.299248E-19  1.838387E-01  0.000000E+00
  1.441380E-01 -3.208945E-02  5.000000E-01  1.455952E-01 -3.237472E-02  0.000000E+00  2.213889E-02 -2.284818E-03 -3.692993E-19  1.360207E-01  0.000000E+00
  1.441380E-01 -3.208945E-02  5.000000E-01  1.455952E-01 -3.237472E-02  0.000000E+00  2.213889E-02 -2.284818E-03 -3.692993E-19  1.360207E-01  0.000000E+00
  1.571670E-01 -3.330647E-02  5.000000E-01  1.587558E-01 -3.360403E-02  0.000000E+00  2.209355E-02 -1.839118E-03  4.926179E-19  9.430776E-02  0.000000E+00
  1.708170E-01 -3.430266E-02  5.000000E-01  1.725437E-01 -3.461028E-02  0.000000E+00  2.178571E-02 -1.371402E-03  8.030230E-19  6.143238E-02  0.000000E+00
  1.850860E-01 -3.505429E-02  5.000000E-01  1.869568E-01 -3.536950E-02  0.000000E+00  2.131927E-02 -9.346458E-04  1.815627E-18  3.974535E-02  0.000000E+00
  1.999720E-01 -3.556997E-02  5.000000E-01  2.019931E-01 -3.589039E-02  0.000000E+00  2.087487E-02 -5.971550E-04  1.770127E-18  2.998046E-02  0.000000E+00
  2.154670E-01 -3.591528E-02  5.000000E-01  2.176446E-01 -3.623919E-02  0.000000E+00  2.059560E-02 -3.853108E-04  2.130589E-18  2.776702E-02  0.000000E+00
  2.315610E-01 -3.616041E-02  5.000000E-01  2.339011E-01 -3.648679E-02  0.000000E+00  2.046900E-02 -2.372038E-04  2.925064E-18  2.302396E-02  0.000000E+00
  2.482400E-01 -3.629698E-02  5.000000E-01  2.507486E-01 -3.662474E-02  0.000000E+00  2.040045E-02 -8.655361E-05  8.066579E-19  1.026926E-02  0.000000E+00
  2.654840E-01 -3.630294E-02  5.000000E-01  2.681667E-01 -3.663076E-02  0.000000E+00  2.032273E-02  8.164802E-05 -1.857520E-19 -7.341457E-03  0.000000E+00
  2.832720E-01 -3.615275E-02  5.000000E-01  2.861343E-01 -3.647905E-02  0.000000E+00  2.019819E-02  2.651062E-04  1.147490E-18 -2.477464E-02  0.000000E+00
  3.015770E-01 -3.582501E-02  5.000000E-01  3.046242E-01 -3.614800E-02  0.000000E+00  2.001093E-02  4.544294E-04  9.052177E-19 -3.861417E-02  0.000000E+00
  3.203660E-01 -3.530629E-02  5.000000E-01  3.236030E-01 -3.562405E-02  0.000000E+00  1.975881E-02  6.392161E-04 -3.328013E-19 -4.769943E-02  0.000000E+00
  3.396030E-01 -3.459121E-02  5.000000E-01  3.430342E-01 -3.490174E-02  0.000000E+00  1.944526E-02  8.128317E-04 -1.064148E-19 -5.236192E-02  0.000000E+00
  3.592490E-01 -3.367774E-02  5.000000E-01  3.628786E-01 -3.397905E-02  0.000000E+00  1.907347E-02  9.731366E-04  1.681782E-19 -5.336797E-02  0.000000E+00
  3.792580E-01 -3.256480E-02  5.000000E-01  3.830897E-01 -3.285487E-02  0.000000E+00  1.864672E-02  1.118822E-03 -6.680417E-19 -5.110799E-02  0.000000E+00
  3.995810E-01 -3.125431E-02  5.000000E-01  4.036179E-01 -3.153115E-02  0.000000E+00  1.816920E-02  1.247524E-03 -5.319564E-19 -4.551263E-02  0.000000E+00
  4.201670E-01 -2.975239E-02  5.000000E-01  4.244118E-01 -3.001406E-02  0.000000E+00  1.764403E-02  1.357576E-03 -3.395818E-19 -3.650505E-02  0.000000E+00
  4.409600E-01 -2.806720E-02  5.000000E-01  4.454148E-01 -2.831185E-02  0.000000E+00  1.707373E-02  1.448466E-03 -5.399443E-19 -2.421161E-02  0.000000E+00
  4.619030E-01 -2.620837E-02  5.000000E-01  4.665693E-01 -2.643425E-02  0.000000E+00  1.646595E-02  1.518338E-03 -3.308589E-20 -8.729791E-03  0.000000E+00
  4.829360E-01 -2.419331E-02  5.000000E-01  4.878147E-01 -2.439883E-02  0.000000E+00  1.583491E-02  1.564726E-03  2.473819E-19  9.758201E-03  0.000000E+00
  5.039990E-01 -2.204587E-02  5.000000E-01  5.090904E-01 -2.222971E-02  0.000000E+00  1.519759E-02  1.586878E-03 -1.248387E-18  3.071797E-02  0.000000E+00
  5.250310E-01 -1.979580E-02  5.000000E-01  5.303348E-01 -1.995691E-02  0.000000E+00  1.457078E-02  1.586204E-03 -1.207738E-18  5.333080E-02  0.000000E+00
  5.459710E-01 -1.747554E-02  5.000000E-01  5.514863E-01 -1.761322E-02  0.000000E+00  1.396937E-02  1.566266E-03  6.174296E-19  7.665715E-02  0.000000E+00
  5.667600E-01 -1.511638E-02  5.000000E-01  5.724853E-01 -1.523025E-02  0.000000E+00  1.340859E-02  1.529982E-03  1.181449E-19  1.000404E-01  0.000000E+00
  4.704230E-01  5.315041E-02  5.000000E-01  4.751754E-01  5.372596E-02  0.000000E+00  2.208569E-02  7.684479E-04 -6.754281E-18 -1.053679E+00  0.000000E+00
  4.494880E-01  5.236079E-02  5.000000E-01  4.540289E-01  5.292837E-02  0.000000E+00  2.189156E-02  8.568400E-04 -7.396958E-18 -1.046881E+00  0.000000E+00
  4.286690E-01  5.151434E-02  5.000000E-01  4.329997E-01  5.207337E-02  0.000000E+00  2.186114E-02  9.124068E-04 -9.085660E-18 -1.045517E+00  0.000000E+00
  4.080230E-01  5.063181E-02  5.000000E-01  4.121452E-01  5.118193E-02  0.000000E+00  2.200218E-02  9.742526E-04 -1.028945E-17 -1.045585E+00  0.000000E+00
  3.876050E-01  4.969856E-02  5.000000E-01  3.915210E-01  5.023925E-02  0.000000E+00  2.225334E-02  1.060126E-03 -1.107287E-17 -1.044491E+00  0.000000E+00
  3.674690E-01  4.870149E-02  5.000000E-01  3.711816E-01  4.923212E-02  0.000000E+00  2.252712E-02  1.167064E-03 -1.189845E-17 -1.041569E+00  0.000000E+00
  3.476650E-01  4.763083E-02  5.000000E-01  3.511776E-01  4.815064E-02  0.000000E+00  2.276838E-02  1.290767E-03 -1.261328E-17 -1.036875E+00  0.000000E+00
  3.282390E-01  4.647911E-02  5.000000E-01  3.315555E-01  4.698730E-02  0.000000E+00  2.296060E-02  1.428480E-03 -1.305686E-17 -1.030757E+00  0.000000E+00
  3.092330E-01  4.524131E-02  5.000000E-01  3.123575E-01  4.573700E-02  0.000000E+00  2.310628E-02  1.575169E-03 -1.306009E-17 -1.023843E+00  0.000000E+00
  2.906860E-01  4.392038E-02  5.000000E-01  2.936232E-01  4.440272E-02  0.000000E+00  2.321501E-02  1.725836E-03 -1.326250E-17 -1.016750E+00  0.000000E+00
  2.726330E-01  4.252187E-02  5.000000E-01  2.753879E-01  4.299009E-02  0.000000E+00  2.329885E-02  1.879673E-03 -1.268097E-17 -1.009736E+00  0.000000E+00
  2.551020E-01  4.105122E-02  5.000000E-01  2.576799E-01  4.150459E-02  0.000000E+00  2.336599E-02  2.037776E-03 -1.171532E-17 -1.002797E+00  0.000000E+00
  2.381210E-01  3.951429E-02  5.000000E-01  2.405274E-01  3.995214E-02  0.000000E+00  2.342219E-02  2.203536E-03 -1.235295E-17 -9.957853E-01  0.000000E+00
  2.217090E-01  3.791322E-02  5.000000E-01  2.239496E-01  3.833490E-02  0.000000E+00  2.346718E-02  2.378169E-03 -1.269797E-17 -9.890052E-01  0.000000E+00
  2.058840E-01  3.625047E-02  5.000000E-01  2.079648E-01  3.665536E-02  0.000000E+00  2.348124E-02  2.540422E-03 -1.292094E-17 -9.846682E-01  0.000000E+00
  1.906600E-01  3.455359E-02  5.000000E-01  1.925871E-01  3.494133E-02  0.000000E+00  2.345673E-02  2.654053E-03 -1.551651E-17 -9.861662E-01  0.000000E+00
  1.760460E-01  3.287292E-02  5.000000E-01  1.778255E-01  3.324370E-02  0.000000E+00  2.346059E-02  2.723758E-03 -2.106749E-17 -9.940175E-01  0.000000E+00
  1.620500E-01  3.123256E-02  5.000000E-01  1.636881E-01  3.158678E-02  0.000000E+00  2.358414E-02  2.791622E-03 -3.055169E-17 -1.005468E+00  0.000000E+00
  1.486750E-01  2.963469E-02  5.000000E-01  1.501781E-01  2.997276E-02  0.000000E+00  2.384821E-02  2.887267E-03 -4.578341E-17 -1.017606E+00  0.000000E+00
  1.359210E-01  2.807109E-02  5.000000E-01  1.372953E-01  2.839338E-02  0.000000E+00  2.420262E-02  3.018589E-03 -7.093945E-17 -1.028686E+00  0.000000E+00
  1.237890E-01  2.653296E-02  5.000000E-01  1.250407E-01  2.683971E-02  0.000000E+00  2.457690E-02  3.182967E-03 -1.120502E-16 -1.038065E+00  0.000000E+00
  1.122730E-01  2.501078E-02  5.000000E-01  1.134084E-01  2.530216E-02  0.000000E+00  2.491967E-02  3.375245E-03 -1.800597E-16 -1.045841E+00  0.000000E+00
  1.013710E-01  2.349889E-02  5.000000E-01  1.023964E-01  2.377500E-02  0.000000E+00  2.520819E-02  3.588936E-03 -2.964830E-16 -1.052625E+00  0.000000E+00
  9.107400E-02  2.199527E-02  5.000000E-01  9.199536E-02  2.225619E-02  0.000000E+00  2.544610E-02  3.823247E-03 -4.967845E-16 -1.058992E+00  0.000000E+00
  9.107400E-02  2.199527E-02  5.000000E-01  9.199536E-02  2.225619E-02  0.000000E+00  2.544610E-02  3.823247E-03 -4.967845E-16 -1.058992E+00  0.000000E+00
  8.137660E-02  2.049767E-02  5.000000E-01  8.220003E-02  2.074347E-02  0.000000E+00  2.564146E-02  4.076542E-03 -8.403662E-16 -1.065689E+00  0.000000E+00
  7.227050E-02  1.900853E-02  5.000000E-01  7.300197E-02  1.923929E-02  0.000000E+00  2.579866E-02  4.342889E-03 -1.432764E-15 -1.073729E+00  0.000000E+00
  6.374670E-02  1.753293E-02  5.000000E-01  6.439209E-02  1.774879E-02  0.000000E+00  2.592848E-02  4.623411E-03 -2.460621E-15 -1.083784E+00  0.000000E+00
  5.579720E-02  1.607420E-02  5.000000E-01  5.636231E-02  1.627533E-02  0.000000E+00  2.603154E-02  4.914268E-03 -4.228092E-15 -1.096761E+00  0.000000E+00
  4.841260E-02  1.464086E-02  5.000000E-01  4.890313E-02  1.482751E-02  0.000000E+00  2.610598E-02  5.210198E-03 -7.208231E-15 -1.113649E+00  0.000000E+00
  4.158390E-02  1.324072E-02  5.000000E-01  4.200547E-02  1.341324E-02  0.000000E+00  2.615695E-02  5.517650E-03 -1.202719E-14 -1.134840E+00  0.000000E+00
  3.530370E-02  1.187865E-02  5.000000E-01  3.566185E-02  1.203741E-02  0.000000E+00  2.616548E-02  5.831306E-03 -1.928205E-14 -1.161174E+00  0.000000E+00
  2.956270E-02  1.056417E-02  5.000000E-01  2.986287E-02  1.070965E-02  0.000000E+00  2.610435E-02  6.146342E-03 -2.909939E-14 -1.193315E+00  0.000000E+00
  2.435310E-02  9.303811E-03  5.000000E-01  2.460066E-02  9.436566E-03  0.000000E+00  2.593356E-02  6.474622E-03 -4.035271E-14 -1.230675E+00  0.000000E+00
  1.967110E-02  8.098063E-03  5.000000E-01  1.987137E-02  8.218641E-03  0.000000E+00  2.551857E-02  6.786743E-03 -4.996901E-14 -1.273565E+00  0.000000E+00
  1.550860E-02  6.954092E-03  5.000000E-01  1.566684E-02  7.063117E-03  0.000000E+00  2.468152E-02  7.034254E-03 -5.353772E-14 -1.322291E+00  0.000000E+00
  1.185930E-02  5.875560E-03  5.000000E-01  1.198068E-02  5.973694E-03  0.000000E+00  2.332484E-02  7.209900E-03 -4.774476E-14 -1.375003E+00  0.000000E+00
  8.724160E-03  4.858653E-03  5.000000E-01  8.813883E-03  4.946517E-03  0.000000E+00  2.157471E-02  7.341373E-03 -3.326090E-14 -1.431243E+00  0.000000E+00
  6.091130E-03  3.911566E-03  5.000000E-01  6.154263E-03  3.989866E-03  0.000000E+00  2.031980E-02  7.818126E-03 -1.634222E-14 -1.486413E+00  0.000000E+00
  3.952840E-03  3.037020E-03  5.000000E-01  3.994378E-03  3.106488E-03  0.000000E+00  2.113267E-02  9.731613E-03 -5.745993E-15 -1.523582E+00  0.000000E+00
  2.330070E-03  2.222228E-03  5.000000E-01  2.355220E-03  2.283467E-03  0.000000E+00  2.423762E-02  1.419344E-02 -5.311720E-15 -1.531267E+00  0.000000E+00
  1.198080E-03  1.485303E-03  5.000000E-01  1.211798E-03  1.539100E-03  0.000000E+00  2.760007E-02  2.138906E-02 -1.176910E-14 -1.519429E+00  0.000000E+00
  5.019560E-04  8.593081E-04  5.000000E-01  5.086442E-04  9.067833E-04  0.000000E+00  3.041406E-02  3.350523E-02 -2.044405E-14 -1.530970E+00  0.000000E+00
  1.313430E-04  3.761638E-04  5.000000E-01  1.342884E-04  4.187598E-04  0.000000E+00  3.506864E-02  7.037274E-02 -2.951227E-14 -1.566227E+00  0.000000E+00
  8.078190E-06  6.801966E-05  5.000000E-01  9.778777E-06  1.075037E-04  0.000000E+00  3.054803E-02  1.732985E-01 -4.090886E-14 -1.484816E+00  0.000000E+00
 -1.602820E-06 -3.840925E-05  5.000000E-01  0.000000E+00  0.000000E+00  0.000000E+00 -4.942882E-03  2.521511E-01 -5.239415E-14 -1.190902E+00  0.000000E+00
  9.141860E-06 -1.484608E-04  5.000000E-01  1.085319E-05 -1.111629E-04  0.000000E+00 -4.976280E-02  1.967994E-01 -6.347697E-14 -4.688129E-01  0.000000E+00