 Title = "ADflow Slice Data"
Variables =  "CoordinateX"  "CoordinateY"  "CoordinateZ"  "XoC"  "YoC"  "ZoC" "VelocityX" "VelocityY" "VelocityZ" "CoefPressure" "Mach" 
Zone T= "Slice_0001 None Absolute Regular z = 0.50000000"
 Nodes =          192  Elements=          184  ZONETYPE=FELINESEG
 DATAPACKING=POINT
  5.667600E-01 -1.507574E-02  5.000000E-01  5.724853E-01 -1.518870E-02  0.000000E+00  1.337955E-02  1.528112E-03  3.548869E-19  1.014087E-01  0.000000E+00
  5.873410E-01 -1.271273E-02  5.000000E-01  5.932741E-01 -1.280182E-02  0.000000E+00  1.287934E-02  1.477124E-03 -4.752641E-19  1.242531E-01  0.000000E+00
  6.076580E-01 -1.038535E-02  5.000000E-01  6.137963E-01 -1.045094E-02  0.000000E+00  1.244040E-02  1.415472E-03 -9.446434E-19  1.460491E-01  0.000000E+00
  6.276600E-01 -8.125782E-03  5.000000E-01  6.340003E-01 -8.168556E-03  0.000000E+00  1.206072E-02  1.347266E-03  7.235116E-19  1.662175E-01  0.000000E+00
  6.472970E-01 -5.958253E-03  5.000000E-01  6.538356E-01 -5.979137E-03  0.000000E+00  1.173109E-02  1.277378E-03  1.264451E-18  1.844009E-01  0.000000E+00
  6.665260E-01 -3.894481E-03  5.000000E-01  6.732588E-01 -3.894524E-03  0.000000E+00  1.144135E-02  1.208322E-03  4.132624E-20  2.008023E-01  0.000000E+00
  6.853050E-01 -1.943921E-03  5.000000E-01  6.922274E-01 -1.924265E-03  0.000000E+00  1.118517E-02  1.137618E-03  8.558523E-19  2.162051E-01  0.000000E+00
  7.035980E-01 -1.232799E-04  5.000000E-01  7.107052E-01 -8.523769E-05  0.000000E+00  1.095214E-02  1.062676E-03  9.254439E-19  2.309540E-01  0.000000E+00
  7.213750E-01  1.555982E-03  5.000000E-01  7.286617E-01  1.610983E-03  0.000000E+00  1.071926E-02  9.838538E-04  4.301586E-19  2.447359E-01  0.000000E+00
  7.386080E-01  3.089974E-03  5.000000E-01  7.460687E-01  3.160467E-03  0.000000E+00  1.045739E-02  9.032170E-04  5.812367E-19  2.574924E-01  0.000000E+00
  7.552750E-01  4.484069E-03  5.000000E-01  7.629040E-01  4.568640E-03  0.000000E+00  1.014835E-02  8.249619E-04 -1.280051E-19  2.696602E-01  0.000000E+00
  7.713580E-01  5.751271E-03  5.000000E-01  7.791495E-01  5.848639E-03  0.000000E+00  9.804995E-03  7.508596E-04 -5.797898E-19  2.817972E-01  0.000000E+00
  7.868410E-01  6.902637E-03  5.000000E-01  7.947888E-01  7.011633E-03  0.000000E+00  9.494498E-03  6.635131E-04  9.370542E-22  2.956266E-01  0.000000E+00
  8.017160E-01  7.878140E-03  5.000000E-01  8.098140E-01  7.996987E-03  0.000000E+00  9.318334E-03  5.399599E-04  1.134010E-18  3.114849E-01  0.000000E+00
  8.159740E-01  8.594246E-03  5.000000E-01  8.242160E-01  8.720326E-03  0.000000E+00  9.340432E-03  3.856662E-04  9.038158E-19  3.243956E-01  0.000000E+00
  8.296120E-01  9.033164E-03  5.000000E-01  8.379918E-01  9.163676E-03  0.000000E+00  9.564737E-03  2.183567E-04  1.482157E-19  3.294789E-01  0.000000E+00
  8.426300E-01  9.211033E-03  5.000000E-01  8.511412E-01  9.343341E-03  0.000000E+00  9.967909E-03  4.488979E-05  4.652953E-19  3.266725E-01  0.000000E+00
  8.550290E-01  9.159132E-03  5.000000E-01  8.636654E-01  9.290916E-03  0.000000E+00  1.052172E-02 -1.337180E-04  5.453510E-19  3.179607E-01  0.000000E+00
  8.668160E-01  8.915123E-03  5.000000E-01  8.755715E-01  9.044443E-03  0.000000E+00  1.119721E-02 -3.163160E-04  9.440517E-19  3.046938E-01  0.000000E+00
  8.779950E-01  8.520221E-03  5.000000E-01  8.868634E-01  8.645553E-03  0.000000E+00  1.196455E-02 -5.003469E-04  1.119954E-18  2.874326E-01  0.000000E+00
  8.885730E-01  8.013664E-03  5.000000E-01  8.975482E-01  8.133880E-03  0.000000E+00  1.279444E-02 -6.832363E-04  1.456216E-18  2.667652E-01  0.000000E+00
  8.985610E-01  7.428796E-03  5.000000E-01  9.076371E-01  7.543106E-03  0.000000E+00  1.365425E-02 -8.582371E-04  1.811682E-18  2.432130E-01  0.000000E+00
  9.079670E-01  6.799375E-03  5.000000E-01  9.171381E-01  6.907328E-03  0.000000E+00  1.450469E-02 -1.012980E-03  1.396877E-18  2.172380E-01  0.000000E+00
  9.168010E-01  6.157894E-03  5.000000E-01  9.260613E-01  6.259369E-03  0.000000E+00  1.530813E-02 -1.138323E-03  5.379575E-19  1.898979E-01  0.000000E+00
  9.168010E-01  6.157894E-03  5.000000E-01  9.260613E-01  6.259369E-03  0.000000E+00  1.530813E-02 -1.138323E-03  5.379575E-19  1.898979E-01  0.000000E+00
  9.250730E-01  5.529148E-03  5.000000E-01  9.344168E-01  5.624273E-03  0.000000E+00  1.604138E-02 -1.235501E-03  1.194796E-19  1.627175E-01  0.000000E+00
  9.327940E-01  4.927370E-03  5.000000E-01  9.422158E-01  5.016418E-03  0.000000E+00  1.670392E-02 -1.316223E-03  3.705287E-19  1.370105E-01  0.000000E+00
  9.399760E-01  4.355831E-03  5.000000E-01  9.494703E-01  4.439107E-03  0.000000E+00  1.731199E-02 -1.392029E-03  3.680886E-19  1.130455E-01  0.000000E+00
  9.466320E-01  3.815232E-03  5.000000E-01  9.561935E-01  3.893049E-03  0.000000E+00  1.788574E-02 -1.467451E-03  5.746059E-19  9.008465E-02  0.000000E+00
  9.527730E-01  3.306391E-03  5.000000E-01  9.623965E-01  3.379069E-03  0.000000E+00  1.844987E-02 -1.548982E-03  1.377978E-18  6.758829E-02  0.000000E+00
  9.584110E-01  2.827167E-03  5.000000E-01  9.680915E-01  2.895005E-03  0.000000E+00  1.903706E-02 -1.647272E-03  1.317076E-18  4.532401E-02  0.000000E+00
  9.635570E-01  2.374325E-03  5.000000E-01  9.732895E-01  2.437590E-03  0.000000E+00  1.968121E-02 -1.768201E-03 -1.727893E-18  2.257404E-02  0.000000E+00
  9.682220E-01  1.946797E-03  5.000000E-01  9.780016E-01  2.005745E-03  0.000000E+00  2.041447E-02 -1.912402E-03 -9.061276E-18 -1.750339E-03  0.000000E+00
  9.724140E-01  1.545861E-03  5.000000E-01  9.822359E-01  1.600760E-03  0.000000E+00  2.128484E-02 -2.087883E-03 -1.215612E-17 -2.827990E-02  0.000000E+00
  9.761430E-01  1.171441E-03  5.000000E-01  9.860026E-01  1.222558E-03  0.000000E+00  2.237447E-02 -2.311805E-03  1.828580E-17 -5.746712E-02  0.000000E+00
  9.794160E-01  8.242708E-04  5.000000E-01  9.893086E-01  8.718822E-04  0.000000E+00  2.378539E-02 -2.597593E-03  1.040110E-16 -9.039357E-02  0.000000E+00
  9.822400E-01  5.074294E-04  5.000000E-01  9.921611E-01  5.518411E-04  0.000000E+00  2.556857E-02 -2.947447E-03  1.572203E-16 -1.285131E-01  0.000000E+00
  9.846200E-01  2.260650E-04  5.000000E-01  9.945652E-01  2.676352E-04  0.000000E+00  2.759310E-02 -3.348164E-03 -1.548907E-16 -1.721756E-01  0.000000E+00
  9.865620E-01 -1.453611E-05  5.000000E-01  9.965268E-01  2.460428E-05  0.000000E+00  2.941272E-02 -3.711980E-03 -1.228104E-15 -2.194908E-01  0.000000E+00
  9.880680E-01 -2.086060E-04  5.000000E-01  9.980480E-01 -1.714255E-04  0.000000E+00  2.987984E-02 -3.827249E-03 -2.346258E-15 -2.767080E-01  0.000000E+00
  9.891420E-01 -3.514240E-04  5.000000E-01  9.991328E-01 -3.156857E-04  0.000000E+00  2.813414E-02 -3.911900E-03  6.114980E-16 -3.436071E-01  0.000000E+00
  9.897860E-01 -4.389487E-04  5.000000E-01  9.997833E-01 -4.040944E-04  0.000000E+00  3.789412E-02 -4.014154E-03  1.403051E-14 -2.895291E-01  0.000000E+00
  9.900000E-01 -4.683023E-04  5.000000E-01  9.999995E-01 -4.337444E-04  0.000000E+00  2.619359E-02  5.267531E-03  1.257409E-14 -5.821813E-01  0.000000E+00
  9.900000E-01 -1.843754E-04  5.000000E-01  9.999995E-01 -1.469502E-04  0.000000E+00  1.230163E-03 -7.886131E-03  1.879258E-15 -8.089886E-01  0.000000E+00
  9.900000E-01  9.955148E-05  5.000000E-01  9.999995E-01  1.398440E-04  0.000000E+00 -4.469835E-04 -2.275055E-02  3.181133E-15 -6.285332E-01  0.000000E+00
  9.900000E-01  3.834784E-04  5.000000E-01  9.999995E-01  4.266383E-04  0.000000E+00 -1.436604E-04 -8.863272E-03  3.712686E-15 -6.284815E-01  0.000000E+00
  9.900000E-01  6.674052E-04  5.000000E-01  9.999995E-01  7.134325E-04  0.000000E+00  4.647385E-04 -5.229832E-03  3.637051E-15 -6.883679E-01  0.000000E+00
  9.900000E-01  9.513321E-04  5.000000E-01  9.999995E-01  1.000227E-03  0.000000E+00  6.798620E-03 -6.633140E-03  3.429684E-15 -6.301156E-01  0.000000E+00
  9.900000E-01  9.513321E-04  5.000000E-01  9.999995E-01  1.000227E-03  0.000000E+00  6.798620E-03 -6.633140E-03  3.429684E-15 -6.301156E-01  0.000000E+00
  9.897890E-01  1.017904E-03  5.000000E-01  9.997864E-01  1.067471E-03  0.000000E+00  9.017684E-03 -3.470272E-03  2.912327E-15 -5.525499E-01  0.000000E+00
  9.891540E-01  1.218674E-03  5.000000E-01  9.991450E-01  1.270268E-03  0.000000E+00  4.569195E-03 -1.351715E-03  1.916638E-15 -5.711520E-01  0.000000E+00
  9.880950E-01  1.555408E-03  5.000000E-01  9.980753E-01  1.610403E-03  0.000000E+00  3.026159E-03 -9.613622E-04  1.051641E-15 -5.707098E-01  0.000000E+00
  9.866100E-01  2.031333E-03  5.000000E-01  9.965753E-01  2.091134E-03  0.000000E+00  1.985119E-03 -6.502193E-04  5.038389E-16 -5.628076E-01  0.000000E+00
  9.846960E-01  2.650662E-03  5.000000E-01  9.946419E-01  2.716718E-03  0.000000E+00  9.972369E-04 -3.238944E-04  2.157317E-16 -5.591673E-01  0.000000E+00
  9.823490E-01  3.418252E-03  5.000000E-01  9.922712E-01  3.492059E-03  0.000000E+00  1.862222E-04 -5.959180E-05  7.550749E-17 -5.581846E-01  0.000000E+00
  9.795670E-01  4.338749E-03  5.000000E-01  9.894611E-01  4.421853E-03  0.000000E+00 -4.267869E-04  1.423852E-04  1.070403E-17 -5.584232E-01  0.000000E+00
  9.763420E-01  5.417936E-03  5.000000E-01  9.862036E-01  5.511938E-03  0.000000E+00 -8.708719E-04  2.930431E-04 -1.302342E-17 -5.598649E-01  0.000000E+00
  9.726710E-01  6.659546E-03  5.000000E-01  9.824955E-01  6.766087E-03  0.000000E+00 -1.170329E-03  3.976036E-04 -1.568634E-17 -5.623970E-01  0.000000E+00
  9.685460E-01  8.066757E-03  5.000000E-01  9.783288E-01  8.187509E-03  0.000000E+00 -1.342404E-03  4.595373E-04 -9.788355E-18 -5.656005E-01  0.000000E+00
  9.639600E-01  9.641715E-03  5.000000E-01  9.736965E-01  9.778372E-03  0.000000E+00 -1.403672E-03  4.833892E-04 -3.984316E-18 -5.689680E-01  0.000000E+00
  9.589060E-01  1.138657E-02  5.000000E-01  9.685915E-01  1.154084E-02  0.000000E+00 -1.374476E-03  4.754046E-04 -1.340027E-18 -5.720236E-01  0.000000E+00
  9.533750E-01  1.330249E-02  5.000000E-01  9.630046E-01  1.347612E-02  0.000000E+00 -1.280615E-03  4.438865E-04 -6.823212E-19 -5.744030E-01  0.000000E+00
  9.473580E-01  1.538825E-02  5.000000E-01  9.569269E-01  1.558294E-02  0.000000E+00 -1.151871E-03  3.989675E-04  4.744874E-19 -5.759198E-01  0.000000E+00
  9.408450E-01  1.764051E-02  5.000000E-01  9.503481E-01  1.785795E-02  0.000000E+00 -1.018436E-03  3.513376E-04  2.002076E-18 -5.766020E-01  0.000000E+00
  9.338260E-01  2.005399E-02  5.000000E-01  9.432582E-01  2.029580E-02  0.000000E+00 -9.070064E-04  3.104921E-04  8.366435E-19 -5.766766E-01  0.000000E+00
  9.262910E-01  2.262024E-02  5.000000E-01  9.356471E-01  2.288796E-02  0.000000E+00 -8.381684E-04  2.834651E-04 -3.936593E-20 -5.764956E-01  0.000000E+00
  9.182290E-01  2.532645E-02  5.000000E-01  9.275037E-01  2.562150E-02  0.000000E+00 -8.258392E-04  2.743478E-04 -4.416256E-19 -5.764295E-01  0.000000E+00
  9.096280E-01  2.815492E-02  5.000000E-01  9.188158E-01  2.847854E-02  0.000000E+00 -8.777264E-04  2.843944E-04 -6.104631E-20 -5.768385E-01  0.000000E+00
  9.004770E-01  3.108218E-02  5.000000E-01  9.095724E-01  3.143536E-02  0.000000E+00 -9.957008E-04  3.122482E-04  7.389826E-19 -5.780389E-01  0.000000E+00
  8.907650E-01  3.407732E-02  5.000000E-01  8.997623E-01  3.446075E-02  0.000000E+00 -1.177045E-03  3.536321E-04 -1.108823E-18 -5.801180E-01  0.000000E+00
  8.804800E-01  3.709897E-02  5.000000E-01  8.893735E-01  3.751292E-02  0.000000E+00 -1.415070E-03  4.009364E-04 -1.169864E-19 -5.829749E-01  0.000000E+00
  8.696090E-01  4.009141E-02  5.000000E-01  8.783927E-01  4.053557E-02  0.000000E+00 -1.695710E-03  4.447466E-04  1.562610E-18 -5.865483E-01  0.000000E+00
  8.696090E-01  4.009141E-02  5.000000E-01  8.783927E-01  4.053557E-02  0.000000E+00 -1.695710E-03  4.447466E-04  1.562610E-18 -5.865483E-01  0.000000E+00
  8.581400E-01  4.298263E-02  5.000000E-01  8.668079E-01  4.345599E-02  0.000000E+00 -1.998999E-03  4.761401E-04  3.377924E-19 -5.898779E-01  0.000000E+00
  8.460600E-01  4.568852E-02  5.000000E-01  8.546059E-01  4.618921E-02  0.000000E+00 -2.307139E-03  4.850719E-04 -8.358282E-19 -5.907650E-01  0.000000E+00
  8.333640E-01  4.812934E-02  5.000000E-01  8.417817E-01  4.865468E-02  0.000000E+00 -2.566296E-03  4.511964E-04 -9.151162E-19 -5.922403E-01  0.000000E+00
  8.200460E-01  5.022967E-02  5.000000E-01  8.283292E-01  5.077622E-02  0.000000E+00 -2.547279E-03  3.463886E-04  6.876191E-19 -6.132789E-01  0.000000E+00
  8.061050E-01  5.192230E-02  5.000000E-01  8.142474E-01  5.248595E-02  0.000000E+00 -1.674683E-03  1.649727E-04  3.111490E-18 -6.831740E-01  0.000000E+00
  7.915460E-01  5.318180E-02  5.000000E-01  7.995413E-01  5.375817E-02  0.000000E+00  9.313378E-04 -4.921453E-05  3.436148E-18 -8.086054E-01  0.000000E+00
  7.763770E-01  5.404775E-02  5.000000E-01  7.842191E-01  5.463285E-02  0.000000E+00  5.895196E-03 -2.150959E-04  2.031373E-19 -9.503030E-01  0.000000E+00
  7.606070E-01  5.458969E-02  5.000000E-01  7.682899E-01  5.518027E-02  0.000000E+00  1.250951E-02 -2.361992E-04 -2.647521E-18 -1.049931E+00  0.000000E+00
  7.442510E-01  5.481471E-02  5.000000E-01  7.517687E-01  5.540756E-02  0.000000E+00  1.839535E-02 -5.388550E-05 -4.975459E-18 -1.082483E+00  0.000000E+00
  7.273250E-01  5.474011E-02  5.000000E-01  7.346718E-01  5.533221E-02  0.000000E+00  2.145696E-02  2.450260E-04 -9.833615E-18 -1.068784E+00  0.000000E+00
  7.098490E-01  5.441736E-02  5.000000E-01  7.170193E-01  5.500620E-02  0.000000E+00  2.172097E-02  4.782607E-04 -1.361435E-17 -1.043838E+00  0.000000E+00
  6.918480E-01  5.394104E-02  5.000000E-01  6.988365E-01  5.452507E-02  0.000000E+00  2.059583E-02  5.327875E-04 -1.350461E-17 -1.032356E+00  0.000000E+00
  6.733520E-01  5.345929E-02  5.000000E-01  6.801537E-01  5.403846E-02  0.000000E+00  1.938829E-02  3.967282E-04 -1.130135E-17 -1.045157E+00  0.000000E+00
  6.543930E-01  5.316932E-02  5.000000E-01  6.610032E-01  5.374556E-02  0.000000E+00  1.880117E-02  1.350140E-04 -8.290545E-18 -1.078936E+00  0.000000E+00
  6.350090E-01  5.318986E-02  5.000000E-01  6.414235E-01  5.376631E-02  0.000000E+00  1.906382E-02 -1.359881E-04 -5.571689E-18 -1.118591E+00  0.000000E+00
  6.152440E-01  5.345548E-02  5.000000E-01  6.214589E-01  5.403461E-02  0.000000E+00  1.997309E-02 -3.336424E-04 -4.450680E-18 -1.149808E+00  0.000000E+00
  5.951420E-01  5.385863E-02  5.000000E-01  6.011539E-01  5.444183E-02  0.000000E+00  2.107978E-02 -4.225406E-04 -4.958647E-18 -1.165706E+00  0.000000E+00
  5.747530E-01  5.427178E-02  5.000000E-01  5.805590E-01  5.485915E-02  0.000000E+00  2.201984E-02 -3.684731E-04 -5.553768E-18 -1.163840E+00  0.000000E+00
  5.541290E-01  5.455340E-02  5.000000E-01  5.597267E-01  5.514361E-02  0.000000E+00  2.262519E-02 -1.602229E-04 -5.743363E-18 -1.145591E+00  0.000000E+00
  5.333260E-01  5.456875E-02  5.000000E-01  5.387136E-01  5.515912E-02  0.000000E+00  2.283539E-02  1.323705E-04 -6.314644E-18 -1.118148E+00  0.000000E+00
  5.124010E-01  5.430627E-02  5.000000E-01  5.175773E-01  5.489399E-02  0.000000E+00  2.269999E-02  4.063665E-04 -6.890097E-18 -1.090766E+00  0.000000E+00
  4.914140E-01  5.381326E-02  5.000000E-01  4.963783E-01  5.439600E-02  0.000000E+00  2.239798E-02  6.191370E-04 -6.589354E-18 -1.068687E+00  0.000000E+00
  4.704230E-01  5.314262E-02  5.000000E-01  4.751754E-01  5.371859E-02  0.000000E+00  2.210321E-02  7.686962E-04 -6.459900E-18 -1.053895E+00  0.000000E+00
  1.696960E-04 -4.816345E-04  5.000000E-01  1.730287E-04 -4.472113E-04  0.000000E+00 -6.437180E-02  9.285234E-02 -6.792826E-14  5.400837E-01  0.000000E+00
  8.054360E-04 -9.791659E-04  5.000000E-01  8.151890E-04 -9.497672E-04  0.000000E+00 -4.695291E-02  3.289931E-02 -5.278847E-14  1.106354E+00  0.000000E+00
  1.973980E-03 -1.586718E-03  5.000000E-01  1.995534E-03 -1.563455E-03  0.000000E+00 -2.107813E-02  1.050387E-02 -2.908639E-14  1.176533E+00  0.000000E+00
  3.614630E-03 -2.302244E-03  5.000000E-01  3.652753E-03 -2.286207E-03  0.000000E+00 -4.080919E-03  1.785757E-03 -9.997554E-15  1.153069E+00  0.000000E+00
  5.721210E-03 -3.134170E-03  5.000000E-01  5.780607E-03 -3.126534E-03  0.000000E+00  4.998629E-03 -1.858280E-03 -9.356648E-17  1.122851E+00  0.000000E+00
  8.297500E-03 -4.080020E-03  5.000000E-01  8.382914E-03 -4.081936E-03  0.000000E+00  9.311614E-03 -3.266685E-03  2.512661E-15  1.078604E+00  0.000000E+00
  1.136560E-02 -5.120200E-03  5.000000E-01  1.148200E-02 -5.132622E-03  0.000000E+00  1.108258E-02 -3.620186E-03  1.854834E-15  1.024238E+00  0.000000E+00
  1.493280E-02 -6.243467E-03  5.000000E-01  1.508522E-02 -6.267232E-03  0.000000E+00  1.167990E-02 -3.586929E-03  7.056920E-16  9.697628E-01  0.000000E+00
  1.899460E-02 -7.458126E-03  5.000000E-01  1.918804E-02 -7.494157E-03  0.000000E+00  1.193729E-02 -3.517606E-03  5.345186E-17  9.190853E-01  0.000000E+00
  2.354800E-02 -8.780224E-03  5.000000E-01  2.378743E-02 -8.829607E-03  0.000000E+00  1.227217E-02 -3.510057E-03 -1.219162E-16  8.692085E-01  0.000000E+00
  2.860130E-02 -1.020527E-02  5.000000E-01  2.889176E-02 -1.026904E-02  0.000000E+00  1.280362E-02 -3.549512E-03 -9.065306E-17  8.174917E-01  0.000000E+00
  3.416500E-02 -1.172218E-02  5.000000E-01  3.451165E-02 -1.180127E-02  0.000000E+00  1.351348E-02 -3.617498E-03 -3.239072E-17  7.651580E-01  0.000000E+00
  4.024810E-02 -1.332176E-02  5.000000E-01  4.065618E-02 -1.341700E-02  0.000000E+00  1.434325E-02 -3.694809E-03 -1.122292E-18  7.131170E-01  0.000000E+00
  4.686030E-02 -1.499171E-02  5.000000E-01  4.733516E-02 -1.510382E-02  0.000000E+00  1.522857E-02 -3.761566E-03  7.939684E-18  6.611528E-01  0.000000E+00
  5.401090E-02 -1.672033E-02  5.000000E-01  5.455797E-02 -1.684990E-02  0.000000E+00  1.612264E-02 -3.809320E-03  6.550595E-18  6.093344E-01  0.000000E+00
  6.170850E-02 -1.849899E-02  5.000000E-01  6.233331E-02 -1.864652E-02  0.000000E+00  1.699979E-02 -3.829704E-03  2.963303E-18  5.572896E-01  0.000000E+00
  6.996310E-02 -2.031335E-02  5.000000E-01  7.067127E-02 -2.047920E-02  0.000000E+00  1.784624E-02 -3.810189E-03  2.552625E-18  5.043150E-01  0.000000E+00
  7.878500E-02 -2.214377E-02  5.000000E-01  7.958226E-02 -2.232811E-02  0.000000E+00  1.865884E-02 -3.747144E-03  2.079483E-18  4.506070E-01  0.000000E+00
  8.818390E-02 -2.397110E-02  5.000000E-01  8.907608E-02 -2.417389E-02  0.000000E+00  1.943905E-02 -3.640647E-03  4.523884E-19  3.965989E-01  0.000000E+00
  9.816930E-02 -2.577276E-02  5.000000E-01  9.916232E-02 -2.599374E-02  0.000000E+00  2.018142E-02 -3.486029E-03  2.865750E-19  3.423500E-01  0.000000E+00
  1.087500E-01 -2.752186E-02  5.000000E-01  1.098499E-01 -2.776051E-02  0.000000E+00  2.086980E-02 -3.279783E-03  1.468696E-18  2.882810E-01  0.000000E+00
  1.199340E-01 -2.919105E-02  5.000000E-01  1.211468E-01 -2.944656E-02  0.000000E+00  2.146931E-02 -3.016852E-03  1.948013E-18  2.350948E-01  0.000000E+00
  1.317280E-01 -3.074823E-02  5.000000E-01  1.330599E-01 -3.101946E-02  0.000000E+00  2.191923E-02 -2.688346E-03  3.693577E-19  1.836386E-01  0.000000E+00
  1.441380E-01 -3.215600E-02  5.000000E-01  1.455952E-01 -3.244145E-02  0.000000E+00  2.214826E-02 -2.294179E-03 -4.616822E-19  1.356967E-01  0.000000E+00
  1.441380E-01 -3.215600E-02  5.000000E-01  1.455952E-01 -3.244145E-02  0.000000E+00  2.214826E-02 -2.294179E-03 -4.616822E-19  1.356967E-01  0.000000E+00
  1.571670E-01 -3.337785E-02  5.000000E-01  1.587558E-01 -3.367564E-02  0.000000E+00  2.210515E-02 -1.848047E-03  7.069556E-20  9.384777E-02  0.000000E+00
  1.708170E-01 -3.437882E-02  5.000000E-01  1.725437E-01 -3.468672E-02  0.000000E+00  2.179951E-02 -1.379708E-03 -3.271465E-19  6.082794E-02  0.000000E+00
  1.850860E-01 -3.513519E-02  5.000000E-01  1.869568E-01 -3.545073E-02  0.000000E+00  2.133560E-02 -9.422647E-04  1.746571E-19  3.899142E-02  0.000000E+00
  1.999720E-01 -3.565557E-02  5.000000E-01  2.019931E-01 -3.597637E-02  0.000000E+00  2.089475E-02 -6.042137E-04  2.233923E-18  2.907185E-02  0.000000E+00
  2.154670E-01 -3.600563E-02  5.000000E-01  2.176446E-01 -3.632996E-02  0.000000E+00  2.062055E-02 -3.919865E-04  1.943119E-18  2.668466E-02  0.000000E+00
  2.315610E-01 -3.625554E-02  5.000000E-01  2.339011E-01 -3.658240E-02  0.000000E+00  2.050039E-02 -2.433683E-04  1.060327E-18  2.171833E-02  0.000000E+00
  2.482400E-01 -3.639663E-02  5.000000E-01  2.507486E-01 -3.672490E-02  0.000000E+00  2.043876E-02 -9.168388E-05  4.938937E-19  8.673550E-03  0.000000E+00
  2.654840E-01 -3.640634E-02  5.000000E-01  2.681667E-01 -3.673471E-02  0.000000E+00  2.036700E-02  7.830545E-05 -8.802394E-19 -9.277458E-03  0.000000E+00
  2.832720E-01 -3.625846E-02  5.000000E-01  2.861343E-01 -3.658534E-02  0.000000E+00  2.024549E-02  2.644172E-04  1.036621E-19 -2.705552E-02  0.000000E+00
  3.015770E-01 -3.593071E-02  5.000000E-01  3.046242E-01 -3.625428E-02  0.000000E+00  2.005624E-02  4.572155E-04  1.227711E-18 -4.117443E-02  0.000000E+00
  3.203660E-01 -3.540868E-02  5.000000E-01  3.236030E-01 -3.572698E-02  0.000000E+00  1.979579E-02  6.460316E-04  6.727701E-19 -5.039062E-02  0.000000E+00
  3.396030E-01 -3.468596E-02  5.000000E-01  3.430342E-01 -3.499697E-02  0.000000E+00  1.946811E-02  8.234692E-04  7.112110E-19 -5.494234E-02  0.000000E+00
  3.592490E-01 -3.376056E-02  5.000000E-01  3.628786E-01 -3.406222E-02  0.000000E+00  1.907881E-02  9.863941E-04  2.580592E-19 -5.554086E-02  0.000000E+00
  3.792580E-01 -3.263238E-02  5.000000E-01  3.830897E-01 -3.292264E-02  0.000000E+00  1.863406E-02  1.133071E-03 -6.363490E-19 -5.263298E-02  0.000000E+00
  3.995810E-01 -3.130453E-02  5.000000E-01  4.036179E-01 -3.158139E-02  0.000000E+00  1.814058E-02  1.261256E-03 -6.352333E-19 -4.627930E-02  0.000000E+00
  4.201670E-01 -2.978451E-02  5.000000E-01  4.244118E-01 -3.004601E-02  0.000000E+00  1.760343E-02  1.369538E-03 -2.974581E-19 -3.652488E-02  0.000000E+00
  4.409600E-01 -2.808194E-02  5.000000E-01  4.454148E-01 -2.832624E-02  0.000000E+00  1.702606E-02  1.457791E-03 -1.115383E-18 -2.358845E-02  0.000000E+00
  4.619030E-01 -2.620777E-02  5.000000E-01  4.665693E-01 -2.643315E-02  0.000000E+00  1.641577E-02  1.524812E-03 -1.833535E-18 -7.640997E-03  0.000000E+00
  4.829360E-01 -2.417975E-02  5.000000E-01  4.878147E-01 -2.438465E-02  0.000000E+00  1.578564E-02  1.568664E-03 -1.152297E-19  1.111653E-02  0.000000E+00
  5.039990E-01 -2.202184E-02  5.000000E-01  5.090904E-01 -2.220495E-02  0.000000E+00  1.515167E-02  1.588726E-03  1.987448E-18  3.219597E-02  0.000000E+00
  5.250310E-01 -1.976382E-02  5.000000E-01  5.303348E-01 -1.992413E-02  0.000000E+00  1.452981E-02  1.586408E-03  2.112720E-18  5.483171E-02  0.000000E+00
  5.459710E-01 -1.743808E-02  5.000000E-01  5.514863E-01 -1.757490E-02  0.000000E+00  1.393424E-02  1.565238E-03  1.321212E-18  7.811664E-02  0.000000E+00
  5.667600E-01 -1.507574E-02  5.000000E-01  5.724853E-01 -1.518870E-02  0.000000E+00  1.337955E-02  1.528112E-03  3.548869E-19  1.014087E-01  0.000000E+00
  4.704230E-01  5.314262E-02  5.000000E-01  4.751754E-01  5.371859E-02  0.000000E+00  2.210321E-02  7.686962E-04 -6.459900E-18 -1.053895E+00  0.000000E+00
  4.494880E-01  5.235199E-02  5.000000E-01  4.540289E-01  5.291997E-02  0.000000E+00  2.191423E-02  8.616886E-04 -7.222268E-18 -1.046590E+00  0.000000E+00
  4.286690E-01  5.149910E-02  5.000000E-01  4.329997E-01  5.205847E-02  0.000000E+00  2.188120E-02  9.228697E-04 -8.612279E-18 -1.044544E+00  0.000000E+00
  4.080230E-01  5.060470E-02  5.000000E-01  4.121452E-01  5.115503E-02  0.000000E+00  2.201118E-02  9.890986E-04 -9.851543E-18 -1.044003E+00  0.000000E+00
  3.876050E-01  4.965626E-02  5.000000E-01  3.915210E-01  5.019702E-02  0.000000E+00  2.224631E-02  1.077050E-03 -1.081559E-17 -1.042538E+00  0.000000E+00
  3.674690E-01  4.864285E-02  5.000000E-01  3.711816E-01  4.917337E-02  0.000000E+00  2.250448E-02  1.183792E-03 -1.198801E-17 -1.039531E+00  0.000000E+00
  3.476650E-01  4.755667E-02  5.000000E-01  3.511776E-01  4.807623E-02  0.000000E+00  2.273413E-02  1.305206E-03 -1.271571E-17 -1.035036E+00  0.000000E+00
  3.282390E-01  4.639209E-02  5.000000E-01  3.315555E-01  4.689989E-02  0.000000E+00  2.292019E-02  1.438973E-03 -1.221672E-17 -1.029345E+00  0.000000E+00
  3.092330E-01  4.514529E-02  5.000000E-01  3.123575E-01  4.564050E-02  0.000000E+00  2.306549E-02  1.581166E-03 -1.157566E-17 -1.022975E+00  0.000000E+00
  2.906860E-01  4.381907E-02  5.000000E-01  2.936232E-01  4.430088E-02  0.000000E+00  2.317850E-02  1.727816E-03 -1.204793E-17 -1.016430E+00  0.000000E+00
  2.726330E-01  4.241844E-02  5.000000E-01  2.753879E-01  4.288610E-02  0.000000E+00  2.326893E-02  1.878369E-03 -1.248813E-17 -1.009910E+00  0.000000E+00
  2.551020E-01  4.094821E-02  5.000000E-01  2.576799E-01  4.140102E-02  0.000000E+00  2.334284E-02  2.033862E-03 -1.213847E-17 -1.003391E+00  0.000000E+00
  2.381210E-01  3.941365E-02  5.000000E-01  2.405274E-01  3.985097E-02  0.000000E+00  2.340490E-02  2.197577E-03 -1.237450E-17 -9.967230E-01  0.000000E+00
  2.217090E-01  3.781637E-02  5.000000E-01  2.239496E-01  3.823756E-02  0.000000E+00  2.345451E-02  2.370626E-03 -1.244613E-17 -9.902183E-01  0.000000E+00
  2.058840E-01  3.615842E-02  5.000000E-01  2.079648E-01  3.656286E-02  0.000000E+00  2.347207E-02  2.531694E-03 -1.237469E-17 -9.860951E-01  0.000000E+00
  1.906600E-01  3.446696E-02  5.000000E-01  1.925871E-01  3.485433E-02  0.000000E+00  2.345021E-02  2.644494E-03 -1.539461E-17 -9.877495E-01  0.000000E+00
  1.760460E-01  3.279208E-02  5.000000E-01  1.778255E-01  3.316253E-02  0.000000E+00  2.345601E-02  2.713634E-03 -2.259423E-17 -9.957057E-01  0.000000E+00
  1.620500E-01  3.115764E-02  5.000000E-01  1.636881E-01  3.151158E-02  0.000000E+00  2.358087E-02  2.781066E-03 -3.283046E-17 -1.007221E+00  0.000000E+00
  1.486750E-01  2.956565E-02  5.000000E-01  1.501781E-01  2.990351E-02  0.000000E+00  2.384562E-02  2.876324E-03 -4.830852E-17 -1.019397E+00  0.000000E+00
  1.359210E-01  2.800781E-02  5.000000E-01  1.372953E-01  2.832994E-02  0.000000E+00  2.420019E-02  3.007275E-03 -7.425784E-17 -1.030499E+00  0.000000E+00
  1.237890E-01  2.647524E-02  5.000000E-01  1.250407E-01  2.678190E-02  0.000000E+00  2.457430E-02  3.171313E-03 -1.181933E-16 -1.039892E+00  0.000000E+00
  1.122730E-01  2.495838E-02  5.000000E-01  1.134084E-01  2.524972E-02  0.000000E+00  2.491676E-02  3.363299E-03 -1.913658E-16 -1.047678E+00  0.000000E+00
  1.013710E-01  2.345155E-02  5.000000E-01  1.023964E-01  2.372768E-02  0.000000E+00  2.520494E-02  3.576755E-03 -3.146299E-16 -1.054469E+00  0.000000E+00
  9.107400E-02  2.195272E-02  5.000000E-01  9.199536E-02  2.221371E-02  0.000000E+00  2.544252E-02  3.810876E-03 -5.250051E-16 -1.060842E+00  0.000000E+00
  9.107400E-02  2.195272E-02  5.000000E-01  9.199536E-02  2.221371E-02  0.000000E+00  2.544252E-02  3.810876E-03 -5.250051E-16 -1.060842E+00  0.000000E+00
  8.137660E-02  2.045964E-02  5.000000E-01  8.220003E-02  2.070554E-02  0.000000E+00  2.563755E-02  4.064012E-03 -8.850262E-16 -1.067545E+00  0.000000E+00
  7.227050E-02  1.897472E-02  5.000000E-01  7.300197E-02  1.920563E-02  0.000000E+00  2.579436E-02  4.330213E-03 -1.504837E-15 -1.075591E+00  0.000000E+00
  6.374670E-02  1.750307E-02  5.000000E-01  6.439209E-02  1.771912E-02  0.000000E+00  2.592369E-02  4.610578E-03 -2.576608E-15 -1.085649E+00  0.000000E+00
  5.579720E-02  1.604800E-02  5.000000E-01  5.636231E-02  1.624935E-02  0.000000E+00  2.602608E-02  4.901246E-03 -4.415746E-15 -1.098628E+00  0.000000E+00
  4.841260E-02  1.461806E-02  5.000000E-01  4.890313E-02  1.480497E-02  0.000000E+00  2.609959E-02  5.196930E-03 -7.506682E-15 -1.115515E+00  0.000000E+00
  4.158390E-02  1.322106E-02  5.000000E-01  4.200547E-02  1.339386E-02  0.000000E+00  2.614929E-02  5.504041E-03 -1.248651E-14 -1.136703E+00  0.000000E+00
  3.530370E-02  1.186186E-02  5.000000E-01  3.566185E-02  1.202094E-02  0.000000E+00  2.615607E-02  5.817227E-03 -1.995720E-14 -1.163030E+00  0.000000E+00
  2.956270E-02  1.055001E-02  5.000000E-01  2.986287E-02  1.069584E-02  0.000000E+00  2.609254E-02  6.131611E-03 -3.002766E-14 -1.195161E+00  0.000000E+00
  2.435310E-02  9.292032E-03  5.000000E-01  2.460066E-02  9.425158E-03  0.000000E+00  2.591844E-02  6.458961E-03 -4.151680E-14 -1.232510E+00  0.000000E+00
  1.967110E-02  8.088428E-03  5.000000E-01  1.987137E-02  8.209399E-03  0.000000E+00  2.549889E-02  6.769783E-03 -5.125558E-14 -1.275385E+00  0.000000E+00
  1.550860E-02  6.946369E-03  5.000000E-01  1.566684E-02  7.055806E-03  0.000000E+00  2.465592E-02  7.015570E-03 -5.473632E-14 -1.324092E+00  0.000000E+00
  1.185930E-02  5.869519E-03  5.000000E-01  1.198068E-02  5.968082E-03  0.000000E+00  2.329276E-02  7.189130E-03 -4.863054E-14 -1.376784E+00  0.000000E+00
  8.724160E-03  4.854064E-03  5.000000E-01  8.813883E-03  4.942372E-03  0.000000E+00  2.153805E-02  7.318809E-03 -3.372665E-14 -1.432993E+00  0.000000E+00
  6.091130E-03  3.908204E-03  5.000000E-01  6.154263E-03  3.986959E-03  0.000000E+00  2.028447E-02  7.795205E-03 -1.648534E-14 -1.488112E+00  0.000000E+00
  3.952840E-03  3.034660E-03  5.000000E-01  3.994378E-03  3.104594E-03  0.000000E+00  2.110714E-02  9.710498E-03 -5.795528E-15 -1.525228E+00  0.000000E+00
  2.330070E-03  2.220633E-03  5.000000E-01  2.355220E-03  2.282346E-03  0.000000E+00  2.422723E-02  1.417648E-02 -5.432049E-15 -1.532886E+00  0.000000E+00
  1.198080E-03  1.484245E-03  5.000000E-01  1.211798E-03  1.538521E-03  0.000000E+00  2.760419E-02  2.137916E-02 -1.199895E-14 -1.521069E+00  0.000000E+00
  5.019560E-04  8.585825E-04  5.000000E-01  5.086442E-04  9.065404E-04  0.000000E+00  3.043533E-02  3.351786E-02 -2.081209E-14 -1.532576E+00  0.000000E+00
  1.313430E-04  3.756155E-04  5.000000E-01  1.342884E-04  4.186960E-04  0.000000E+00  3.511439E-02  7.045941E-02 -3.009861E-14 -1.567490E+00  0.000000E+00
  8.078190E-06  6.753013E-05  5.000000E-01  9.778777E-06  1.074993E-04  0.000000E+00  3.059477E-02  1.734200E-01 -4.173563E-14 -1.485349E+00  0.000000E+00
 -1.602820E-06 -3.889441E-05  5.000000E-01  0.000000E+00  0.000000E+00  0.000000E+00 -4.929438E-03  2.521946E-01 -5.339810E-14 -1.191266E+00  0.000000E+00
  9.141860E-06 -1.489515E-04  5.000000E-01  1.085319E-05 -1.111686E-04  0.000000E+00 -4.976312E-02  1.968015E-01 -6.465496E-14 -4.695497E-01  0.000000E+00