 Title = "ADflow Slice Data"
Variables =  "CoordinateX"  "CoordinateY"  "CoordinateZ"  "XoC"  "YoC"  "ZoC" "VelocityX" "VelocityY" "VelocityZ" "CoefPressure" "Mach" 
Zone T= "Slice_0001 None Absolute Regular z = 0.50000000"
 Nodes =          192  Elements=          184  ZONETYPE=FELINESEG
 DATAPACKING=POINT
  5.667600E-01 -1.511056E-02  5.000000E-01  5.724853E-01 -1.522417E-02  0.000000E+00  1.340204E-02  1.529663E-03 -4.585403E-20  1.002976E-01  0.000000E+00
  5.873410E-01 -1.274884E-02  5.000000E-01  5.932741E-01 -1.283859E-02  0.000000E+00  1.289808E-02  1.478674E-03  3.764205E-19  1.232529E-01  0.000000E+00
  6.076580E-01 -1.042207E-02  5.000000E-01  6.137963E-01 -1.048833E-02  0.000000E+00  1.245631E-02  1.417147E-03  1.485979E-18  1.451105E-01  0.000000E+00
  6.276600E-01 -8.162312E-03  5.000000E-01  6.340003E-01 -8.205749E-03  0.000000E+00  1.207389E-02  1.349151E-03  8.831789E-19  1.653318E-01  0.000000E+00
  6.472970E-01 -5.993612E-03  5.000000E-01  6.538356E-01 -6.015147E-03  0.000000E+00  1.174099E-02  1.279529E-03 -1.180106E-19  1.835805E-01  0.000000E+00
  6.665260E-01 -3.927464E-03  5.000000E-01  6.732588E-01 -3.928133E-03  0.000000E+00  1.144725E-02  1.210729E-03  4.114771E-19  2.000724E-01  0.000000E+00
  6.853050E-01 -1.973350E-03  5.000000E-01  6.922274E-01 -1.954286E-03  0.000000E+00  1.118670E-02  1.140127E-03  1.397146E-18  2.156035E-01  0.000000E+00
  7.035980E-01 -1.484633E-04  5.000000E-01  7.107052E-01 -1.109695E-04  0.000000E+00  1.094947E-02  1.065068E-03  4.477262E-19  2.305102E-01  0.000000E+00
  7.213750E-01  1.535262E-03  5.000000E-01  7.286617E-01  1.589760E-03  0.000000E+00  1.071301E-02  9.859700E-04 -8.233489E-19  2.444503E-01  0.000000E+00
  7.386080E-01  3.073553E-03  5.000000E-01  7.460687E-01  3.143585E-03  0.000000E+00  1.044847E-02  9.049659E-04 -8.748843E-19  2.573434E-01  0.000000E+00
  7.552750E-01  4.471507E-03  5.000000E-01  7.629040E-01  4.555658E-03  0.000000E+00  1.013778E-02  8.263044E-04  1.243688E-19  2.696179E-01  0.000000E+00
  7.713580E-01  5.741957E-03  5.000000E-01  7.791495E-01  5.838937E-03  0.000000E+00  9.793767E-03  7.517972E-04  9.622321E-19  2.818321E-01  0.000000E+00
  7.868410E-01  6.895867E-03  5.000000E-01  7.947888E-01  7.004501E-03  0.000000E+00  9.483423E-03  6.641220E-04  2.772545E-19  2.957096E-01  0.000000E+00
  8.017160E-01  7.873255E-03  5.000000E-01  8.098140E-01  7.991759E-03  0.000000E+00  9.307898E-03  5.403914E-04 -3.692840E-19  3.115891E-01  0.000000E+00
  8.159740E-01  8.590734E-03  5.000000E-01  8.242160E-01  8.716484E-03  0.000000E+00  9.330843E-03  3.860524E-04 -6.440033E-19  3.245033E-01  0.000000E+00
  8.296120E-01  9.030642E-03  5.000000E-01  8.379918E-01  9.160835E-03  0.000000E+00  9.556035E-03  2.187596E-04 -3.284776E-19  3.295844E-01  0.000000E+00
  8.426300E-01  9.209226E-03  5.000000E-01  8.511412E-01  9.341222E-03  0.000000E+00  9.960052E-03  4.532709E-05  3.014081E-20  3.267755E-01  0.000000E+00
  8.550290E-01  9.157840E-03  5.000000E-01  8.636654E-01  9.289317E-03  0.000000E+00  1.051462E-02 -1.332498E-04  1.403474E-19  3.180620E-01  0.000000E+00
  8.668160E-01  8.914203E-03  5.000000E-01  8.755715E-01  9.043220E-03  0.000000E+00  1.119079E-02 -3.158288E-04  5.112619E-19  3.047933E-01  0.000000E+00
  8.779950E-01  8.519569E-03  5.000000E-01  8.868634E-01  8.644600E-03  0.000000E+00  1.195872E-02 -4.998541E-04  3.933153E-19  2.875301E-01  0.000000E+00
  8.885730E-01  8.013206E-03  5.000000E-01  8.975482E-01  8.133123E-03  0.000000E+00  1.278912E-02 -6.827493E-04  1.053531E-19  2.668606E-01  0.000000E+00
  8.985610E-01  7.428478E-03  5.000000E-01  9.076371E-01  7.542490E-03  0.000000E+00  1.364938E-02 -8.577657E-04  2.739713E-19  2.433064E-01  0.000000E+00
  9.079670E-01  6.799156E-03  5.000000E-01  9.171381E-01  6.906813E-03  0.000000E+00  1.450022E-02 -1.012534E-03  1.047056E-18  2.173293E-01  0.000000E+00
  9.168010E-01  6.157746E-03  5.000000E-01  9.260613E-01  6.258925E-03  0.000000E+00  1.530402E-02 -1.137910E-03  1.908974E-18  1.899872E-01  0.000000E+00
  9.168010E-01  6.157746E-03  5.000000E-01  9.260613E-01  6.258925E-03  0.000000E+00  1.530402E-02 -1.137910E-03  1.908974E-18  1.899872E-01  0.000000E+00
  9.250730E-01  5.529049E-03  5.000000E-01  9.344168E-01  5.623880E-03  0.000000E+00  1.603760E-02 -1.235126E-03  8.623676E-19  1.628045E-01  0.000000E+00
  9.327940E-01  4.927306E-03  5.000000E-01  9.422158E-01  5.016060E-03  0.000000E+00  1.670044E-02 -1.315883E-03 -1.203660E-18  1.370949E-01  0.000000E+00
  9.399760E-01  4.355792E-03  5.000000E-01  9.494703E-01  4.438774E-03  0.000000E+00  1.730877E-02 -1.391720E-03 -3.113552E-18  1.131272E-01  0.000000E+00
  9.466320E-01  3.815209E-03  5.000000E-01  9.561935E-01  3.892731E-03  0.000000E+00  1.788276E-02 -1.467169E-03 -1.685141E-18  9.016366E-02  0.000000E+00
  9.527730E-01  3.306378E-03  5.000000E-01  9.623965E-01  3.378762E-03  0.000000E+00  1.844709E-02 -1.548723E-03  7.235580E-18  6.766474E-02  0.000000E+00
  9.584110E-01  2.827161E-03  5.000000E-01  9.680915E-01  2.894705E-03  0.000000E+00  1.903446E-02 -1.647029E-03  2.151758E-17  4.539807E-02  0.000000E+00
  9.635570E-01  2.374323E-03  5.000000E-01  9.732895E-01  2.437294E-03  0.000000E+00  1.967878E-02 -1.767970E-03  2.887075E-17  2.264595E-02  0.000000E+00
  9.682220E-01  1.946797E-03  5.000000E-01  9.780016E-01  2.005451E-03  0.000000E+00  2.041217E-02 -1.912179E-03  1.524592E-17 -1.680251E-03  0.000000E+00
  9.724140E-01  1.545863E-03  5.000000E-01  9.822359E-01  1.600467E-03  0.000000E+00  2.128265E-02 -2.087664E-03 -2.104428E-18 -2.821119E-02  0.000000E+00
  9.761430E-01  1.171443E-03  5.000000E-01  9.860026E-01  1.222266E-03  0.000000E+00  2.237237E-02 -2.311586E-03  4.774335E-17 -5.739917E-02  0.000000E+00
  9.794160E-01  8.242727E-04  5.000000E-01  9.893086E-01  8.715900E-04  0.000000E+00  2.378332E-02 -2.597368E-03  1.998417E-16 -9.032547E-02  0.000000E+00
  9.822400E-01  5.074310E-04  5.000000E-01  9.921611E-01  5.515486E-04  0.000000E+00  2.556643E-02 -2.947204E-03  2.357448E-16 -1.284434E-01  0.000000E+00
  9.846200E-01  2.260663E-04  5.000000E-01  9.945652E-01  2.673424E-04  0.000000E+00  2.759069E-02 -3.347877E-03 -3.758865E-16 -1.721021E-01  0.000000E+00
  9.865620E-01 -1.453517E-05  5.000000E-01  9.965268E-01  2.431116E-05  0.000000E+00  2.940972E-02 -3.711602E-03 -1.904127E-15 -2.194110E-01  0.000000E+00
  9.880680E-01 -2.086054E-04  5.000000E-01  9.980480E-01 -1.717189E-04  0.000000E+00  2.987575E-02 -3.826726E-03 -3.052786E-15 -2.766201E-01  0.000000E+00
  9.891420E-01 -3.514235E-04  5.000000E-01  9.991328E-01 -3.159794E-04  0.000000E+00  2.812862E-02 -3.911170E-03  1.280053E-16 -3.435050E-01  0.000000E+00
  9.897860E-01 -4.389484E-04  5.000000E-01  9.997833E-01 -4.043882E-04  0.000000E+00  3.788641E-02 -4.013308E-03  1.133796E-14 -2.894010E-01  0.000000E+00
  9.900000E-01 -4.683020E-04  5.000000E-01  9.999995E-01 -4.340382E-04  0.000000E+00  2.618860E-02  5.267600E-03  1.272396E-14 -5.820258E-01  0.000000E+00
  9.900000E-01 -1.843752E-04  5.000000E-01  9.999995E-01 -1.472440E-04  0.000000E+00  1.229789E-03 -7.885283E-03  1.632368E-15 -8.088192E-01  0.000000E+00
  9.900000E-01  9.955170E-05  5.000000E-01  9.999995E-01  1.395502E-04  0.000000E+00 -4.468949E-04 -2.274871E-02 -2.518252E-15 -6.283690E-01  0.000000E+00
  9.900000E-01  3.834786E-04  5.000000E-01  9.999995E-01  4.263444E-04  0.000000E+00 -1.436025E-04 -8.862933E-03 -8.611660E-17 -6.283247E-01  0.000000E+00
  9.900000E-01  6.674054E-04  5.000000E-01  9.999995E-01  7.131386E-04  0.000000E+00  4.646645E-04 -5.229882E-03  3.496597E-15 -6.882058E-01  0.000000E+00
  9.900000E-01  9.513323E-04  5.000000E-01  9.999995E-01  9.999328E-04  0.000000E+00  6.797424E-03 -6.632455E-03  5.588023E-15 -6.299546E-01  0.000000E+00
  9.900000E-01  9.513323E-04  5.000000E-01  9.999995E-01  9.999328E-04  0.000000E+00  6.797424E-03 -6.632455E-03  5.588023E-15 -6.299546E-01  0.000000E+00
  9.897890E-01  1.017904E-03  5.000000E-01  9.997864E-01  1.067177E-03  0.000000E+00  9.015898E-03 -3.469634E-03  4.905372E-15 -5.523941E-01  0.000000E+00
  9.891540E-01  1.218674E-03  5.000000E-01  9.991450E-01  1.269975E-03  0.000000E+00  4.567887E-03 -1.351314E-03  2.592864E-15 -5.709965E-01  0.000000E+00
  9.880950E-01  1.555408E-03  5.000000E-01  9.980753E-01  1.610109E-03  0.000000E+00  3.024914E-03 -9.609638E-04  9.011131E-16 -5.705563E-01  0.000000E+00
  9.866100E-01  2.031334E-03  5.000000E-01  9.965753E-01  2.090841E-03  0.000000E+00  1.983887E-03 -6.498218E-04  2.476519E-16 -5.626563E-01  0.000000E+00
  9.846960E-01  2.650664E-03  5.000000E-01  9.946419E-01  2.716425E-03  0.000000E+00  9.960386E-04 -3.235055E-04  1.265452E-16 -5.590183E-01  0.000000E+00
  9.823490E-01  3.418253E-03  5.000000E-01  9.922712E-01  3.491767E-03  0.000000E+00  1.851112E-04 -5.922686E-05  1.094261E-16 -5.580385E-01  0.000000E+00
  9.795670E-01  4.338751E-03  5.000000E-01  9.894611E-01  4.421560E-03  0.000000E+00 -4.277170E-04  1.426943E-04  6.594045E-17 -5.582801E-01  0.000000E+00
  9.763420E-01  5.417937E-03  5.000000E-01  9.862036E-01  5.511645E-03  0.000000E+00 -8.715103E-04  2.932574E-04  1.581563E-17 -5.597244E-01  0.000000E+00
  9.726710E-01  6.659547E-03  5.000000E-01  9.824955E-01  6.765794E-03  0.000000E+00 -1.170576E-03  3.976867E-04 -1.236995E-17 -5.622580E-01  0.000000E+00
  9.685460E-01  8.066757E-03  5.000000E-01  9.783288E-01  8.187215E-03  0.000000E+00 -1.342194E-03  4.594647E-04 -1.803883E-17 -5.654613E-01  0.000000E+00
  9.639600E-01  9.641712E-03  5.000000E-01  9.736965E-01  9.778076E-03  0.000000E+00 -1.402995E-03  4.831551E-04 -1.276778E-17 -5.688264E-01  0.000000E+00
  9.589060E-01  1.138656E-02  5.000000E-01  9.685915E-01  1.154054E-02  0.000000E+00 -1.373387E-03  4.750264E-04 -6.242171E-18 -5.718776E-01  0.000000E+00
  9.533750E-01  1.330248E-02  5.000000E-01  9.630046E-01  1.347581E-02  0.000000E+00 -1.279227E-03  4.434035E-04 -1.673067E-18 -5.742511E-01  0.000000E+00
  9.473580E-01  1.538822E-02  5.000000E-01  9.569269E-01  1.558262E-02  0.000000E+00 -1.150342E-03  3.984351E-04  5.317029E-19 -5.757617E-01  0.000000E+00
  9.408450E-01  1.764046E-02  5.000000E-01  9.503481E-01  1.785761E-02  0.000000E+00 -1.016942E-03  3.508184E-04  1.003110E-18 -5.764388E-01  0.000000E+00
  9.338260E-01  2.005391E-02  5.000000E-01  9.432582E-01  2.029542E-02  0.000000E+00 -9.057253E-04  3.100485E-04  1.124634E-18 -5.765105E-01  0.000000E+00
  9.262910E-01  2.262011E-02  5.000000E-01  9.356471E-01  2.288754E-02  0.000000E+00 -8.372720E-04  2.831553E-04  6.102011E-20 -5.763294E-01  0.000000E+00
  9.182290E-01  2.532625E-02  5.000000E-01  9.275037E-01  2.562101E-02  0.000000E+00 -8.254919E-04  2.742224E-04 -1.193158E-18 -5.762662E-01  0.000000E+00
  9.096280E-01  2.815462E-02  5.000000E-01  9.188158E-01  2.847794E-02  0.000000E+00 -8.780737E-04  2.844926E-04 -1.017109E-18 -5.766813E-01  0.000000E+00
  9.004770E-01  3.108173E-02  5.000000E-01  9.095724E-01  3.143462E-02  0.000000E+00 -9.968485E-04  3.125890E-04 -5.926615E-19 -5.778898E-01  0.000000E+00
  8.907650E-01  3.407666E-02  5.000000E-01  8.997623E-01  3.445979E-02  0.000000E+00 -1.179031E-03  3.541943E-04 -1.525997E-19 -5.799772E-01  0.000000E+00
  8.804800E-01  3.709801E-02  5.000000E-01  8.893735E-01  3.751165E-02  0.000000E+00 -1.417789E-03  4.016456E-04 -4.299049E-19 -5.828437E-01  0.000000E+00
  8.696090E-01  4.009001E-02  5.000000E-01  8.783927E-01  4.053387E-02  0.000000E+00 -1.698843E-03  4.455031E-04 -7.743353E-19 -5.864245E-01  0.000000E+00
  8.696090E-01  4.009001E-02  5.000000E-01  8.783927E-01  4.053387E-02  0.000000E+00 -1.698843E-03  4.455031E-04 -7.743353E-19 -5.864245E-01  0.000000E+00
  8.581400E-01  4.298061E-02  5.000000E-01  8.668079E-01  4.345366E-02  0.000000E+00 -2.002161E-03  4.768403E-04  5.989924E-20 -5.897327E-01  0.000000E+00
  8.460600E-01  4.568563E-02  5.000000E-01  8.546059E-01  4.618599E-02  0.000000E+00 -2.309966E-03  4.855099E-04  8.087314E-19 -5.905679E-01  0.000000E+00
  8.333640E-01  4.812520E-02  5.000000E-01  8.417817E-01  4.865021E-02  0.000000E+00 -2.567295E-03  4.509472E-04  3.932995E-19 -5.921148E-01  0.000000E+00
  8.200460E-01  5.022376E-02  5.000000E-01  8.283292E-01  5.076996E-02  0.000000E+00 -2.541107E-03  3.449727E-04 -2.745625E-19 -6.136114E-01  0.000000E+00
  8.061050E-01  5.191389E-02  5.000000E-01  8.142474E-01  5.247716E-02  0.000000E+00 -1.650212E-03  1.623438E-04  7.987680E-19 -6.843005E-01  0.000000E+00
  7.915460E-01  5.316987E-02  5.000000E-01  7.995413E-01  5.374582E-02  0.000000E+00  9.876816E-04 -5.224701E-05  2.469278E-18 -8.102503E-01  0.000000E+00
  7.763770E-01  5.403093E-02  5.000000E-01  7.842191E-01  5.461558E-02  0.000000E+00  5.983520E-03 -2.163364E-04  1.927209E-18 -9.515917E-01  0.000000E+00
  7.606070E-01  5.456641E-02  5.000000E-01  7.682899E-01  5.515646E-02  0.000000E+00  1.260100E-02 -2.328955E-04 -9.766977E-19 -1.050155E+00  0.000000E+00
  7.442510E-01  5.478363E-02  5.000000E-01  7.517687E-01  5.537588E-02  0.000000E+00  1.844861E-02 -4.559140E-05 -5.188434E-18 -1.081655E+00  0.000000E+00
  7.273250E-01  5.470045E-02  5.000000E-01  7.346718E-01  5.529186E-02  0.000000E+00  2.145542E-02  2.552852E-04 -1.016943E-17 -1.067407E+00  0.000000E+00
  7.098490E-01  5.436933E-02  5.000000E-01  7.170193E-01  5.495740E-02  0.000000E+00  2.168058E-02  4.865724E-04 -1.340425E-17 -1.042442E+00  0.000000E+00
  6.918480E-01  5.388632E-02  5.000000E-01  6.988365E-01  5.446950E-02  0.000000E+00  2.054082E-02  5.369177E-04 -1.315663E-17 -1.031351E+00  0.000000E+00
  6.733520E-01  5.340148E-02  5.000000E-01  6.801537E-01  5.397976E-02  0.000000E+00  1.933497E-02  3.958192E-04 -1.113080E-17 -1.044855E+00  0.000000E+00
  6.543930E-01  5.311430E-02  5.000000E-01  6.610032E-01  5.368969E-02  0.000000E+00  1.875868E-02  1.287203E-04 -8.607545E-18 -1.079490E+00  0.000000E+00
  6.350090E-01  5.314434E-02  5.000000E-01  6.414235E-01  5.372003E-02  0.000000E+00  1.903837E-02 -1.473673E-04 -6.273887E-18 -1.119900E+00  0.000000E+00
  6.152440E-01  5.342422E-02  5.000000E-01  6.214589E-01  5.400274E-02  0.000000E+00  1.996726E-02 -3.489299E-04 -4.804575E-18 -1.151571E+00  0.000000E+00
  5.951420E-01  5.384382E-02  5.000000E-01  6.011539E-01  5.442658E-02  0.000000E+00  2.109074E-02 -4.394095E-04 -4.246874E-18 -1.167544E+00  0.000000E+00
  5.747530E-01  5.427262E-02  5.000000E-01  5.805590E-01  5.485971E-02  0.000000E+00  2.204105E-02 -3.832926E-04 -4.909411E-18 -1.165358E+00  0.000000E+00
  5.541290E-01  5.456578E-02  5.000000E-01  5.597267E-01  5.515583E-02  0.000000E+00  2.264915E-02 -1.690811E-04 -5.829715E-18 -1.146452E+00  0.000000E+00
  5.333260E-01  5.458560E-02  5.000000E-01  5.387136E-01  5.517585E-02  0.000000E+00  2.285373E-02  1.307808E-04 -6.361546E-18 -1.118238E+00  0.000000E+00
  5.124010E-01  5.432155E-02  5.000000E-01  5.175773E-01  5.490913E-02  0.000000E+00  2.270530E-02  4.096744E-04 -6.390316E-18 -1.090269E+00  0.000000E+00
  4.914140E-01  5.382396E-02  5.000000E-01  4.963783E-01  5.440651E-02  0.000000E+00  2.238766E-02  6.235627E-04 -5.842756E-18 -1.067962E+00  0.000000E+00
  4.704230E-01  5.314891E-02  5.000000E-01  4.751754E-01  5.372464E-02  0.000000E+00  2.207991E-02  7.706440E-04 -6.074310E-18 -1.053366E+00  0.000000E+00
  1.696960E-04 -4.812934E-04  5.000000E-01  1.730287E-04 -4.471608E-04  0.000000E+00 -6.436599E-02  9.283059E-02 -7.637733E-14  5.406826E-01  0.000000E+00
  8.054360E-04 -9.786391E-04  5.000000E-01  8.151890E-04 -9.495291E-04  0.000000E+00 -4.693648E-02  3.287534E-02 -5.275169E-14  1.106682E+00  0.000000E+00
  1.973980E-03 -1.585850E-03  5.000000E-01  1.995534E-03 -1.562872E-03  0.000000E+00 -2.105813E-02  1.048803E-02 -2.263793E-14  1.176587E+00  0.000000E+00
  3.614630E-03 -2.300895E-03  5.000000E-01  3.652753E-03 -2.285138E-03  0.000000E+00 -4.062763E-03  1.776984E-03 -2.116376E-15  1.152971E+00  0.000000E+00
  5.721210E-03 -3.132202E-03  5.000000E-01  5.780607E-03 -3.124841E-03  0.000000E+00  5.013630E-03 -1.862534E-03  5.572626E-15  1.122665E+00  0.000000E+00
  8.297500E-03 -4.077295E-03  5.000000E-01  8.382914E-03 -4.079478E-03  0.000000E+00  9.324087E-03 -3.268357E-03  5.051825E-15  1.078355E+00  0.000000E+00
  1.136560E-02 -5.116572E-03  5.000000E-01  1.148200E-02 -5.129250E-03  0.000000E+00  1.109333E-02 -3.620439E-03  2.166679E-15  1.023941E+00  0.000000E+00
  1.493280E-02 -6.238786E-03  5.000000E-01  1.508522E-02 -6.262797E-03  0.000000E+00  1.168962E-02 -3.586467E-03  8.555459E-17  9.694346E-01  0.000000E+00
  1.899460E-02 -7.452245E-03  5.000000E-01  1.918804E-02 -7.488511E-03  0.000000E+00  1.194660E-02 -3.516821E-03 -6.438990E-16  9.187385E-01  0.000000E+00
  2.354800E-02 -8.772998E-03  5.000000E-01  2.378743E-02 -8.822602E-03  0.000000E+00  1.228148E-02 -3.509094E-03 -5.847260E-16  8.688488E-01  0.000000E+00
  2.860130E-02 -1.019655E-02  5.000000E-01  2.889176E-02 -1.026053E-02  0.000000E+00  1.281309E-02 -3.548355E-03 -3.049164E-16  8.171208E-01  0.000000E+00
  3.416500E-02 -1.171182E-02  5.000000E-01  3.451165E-02 -1.179110E-02  0.000000E+00  1.352306E-02 -3.616076E-03 -7.937562E-17  7.647782E-01  0.000000E+00
  4.024810E-02 -1.330961E-02  5.000000E-01  4.065618E-02 -1.340502E-02  0.000000E+00  1.435280E-02 -3.693042E-03  3.440836E-17  7.127312E-01  0.000000E+00
  4.686030E-02 -1.497761E-02  5.000000E-01  4.733516E-02 -1.508987E-02  0.000000E+00  1.523793E-02 -3.759395E-03  6.681550E-17  6.607635E-01  0.000000E+00
  5.401090E-02 -1.670413E-02  5.000000E-01  5.455797E-02 -1.683382E-02  0.000000E+00  1.613170E-02 -3.806715E-03  6.038938E-17  6.089437E-01  0.000000E+00
  6.170850E-02 -1.848052E-02  5.000000E-01  6.233331E-02 -1.862816E-02  0.000000E+00  1.700849E-02 -3.826657E-03  4.594394E-17  5.568987E-01  0.000000E+00
  6.996310E-02 -2.029245E-02  5.000000E-01  7.067127E-02 -2.045839E-02  0.000000E+00  1.785455E-02 -3.806697E-03  3.396630E-17  5.039243E-01  0.000000E+00
  7.878500E-02 -2.212026E-02  5.000000E-01  7.958226E-02 -2.230466E-02  0.000000E+00  1.866677E-02 -3.743203E-03  2.475036E-17  4.502168E-01  0.000000E+00
  8.818390E-02 -2.394479E-02  5.000000E-01  8.907608E-02 -2.414761E-02  0.000000E+00  1.944660E-02 -3.636250E-03  1.886886E-17  3.962095E-01  0.000000E+00
  9.816930E-02 -2.574345E-02  5.000000E-01  9.916232E-02 -2.596444E-02  0.000000E+00  2.018864E-02 -3.481163E-03  1.517991E-17  3.419613E-01  0.000000E+00
  1.087500E-01 -2.748932E-02  5.000000E-01  1.098499E-01 -2.772794E-02  0.000000E+00  2.087674E-02 -3.274430E-03  1.163501E-17  2.878928E-01  0.000000E+00
  1.199340E-01 -2.915502E-02  5.000000E-01  1.211468E-01 -2.941046E-02  0.000000E+00  2.147607E-02 -3.010988E-03  8.204261E-18  2.347072E-01  0.000000E+00
  1.317280E-01 -3.070840E-02  5.000000E-01  1.330599E-01 -3.097953E-02  0.000000E+00  2.192591E-02 -2.681930E-03  6.269197E-18  1.832529E-01  0.000000E+00
  1.441380E-01 -3.211198E-02  5.000000E-01  1.455952E-01 -3.239728E-02  0.000000E+00  2.215484E-02 -2.287144E-03  6.771912E-18  1.353174E-01  0.000000E+00
  1.441380E-01 -3.211198E-02  5.000000E-01  1.455952E-01 -3.239728E-02  0.000000E+00  2.215484E-02 -2.287144E-03  6.771912E-18  1.353174E-01  0.000000E+00
  1.571670E-01 -3.332915E-02  5.000000E-01  1.587558E-01 -3.362674E-02  0.000000E+00  2.211123E-02 -1.840273E-03  1.051591E-17  9.348608E-02  0.000000E+00
  1.708170E-01 -3.432480E-02  5.000000E-01  1.725437E-01 -3.463245E-02  0.000000E+00  2.180393E-02 -1.371004E-03  1.454225E-17  6.050686E-02  0.000000E+00
  1.850860E-01 -3.507496E-02  5.000000E-01  1.869568E-01 -3.539019E-02  0.000000E+00  2.133608E-02 -9.323626E-04  1.490087E-17  3.875447E-02  0.000000E+00
  1.999720E-01 -3.558793E-02  5.000000E-01  2.019931E-01 -3.590834E-02  0.000000E+00  2.088772E-02 -5.927648E-04  1.220409E-17  2.899163E-02  0.000000E+00
  2.154670E-01 -3.592897E-02  5.000000E-01  2.176446E-01 -3.625282E-02  0.000000E+00  2.060153E-02 -3.787496E-04  8.059992E-18  2.687753E-02  0.000000E+00
  2.315610E-01 -3.616808E-02  5.000000E-01  2.339011E-01 -3.649434E-02  0.000000E+00  2.046508E-02 -2.286972E-04  4.041318E-18  2.235576E-02  0.000000E+00
  2.482400E-01 -3.629705E-02  5.000000E-01  2.507486E-01 -3.662462E-02  0.000000E+00  2.038439E-02 -7.672115E-05  1.170722E-18  9.950554E-03  0.000000E+00
  2.654840E-01 -3.629429E-02  5.000000E-01  2.681667E-01 -3.662183E-02  0.000000E+00  2.029395E-02  9.177560E-05  2.222000E-19 -7.197206E-03  0.000000E+00
  2.832720E-01 -3.613507E-02  5.000000E-01  2.861343E-01 -3.646100E-02  0.000000E+00  2.015910E-02  2.741359E-04  1.261314E-18 -2.409107E-02  0.000000E+00
  3.015770E-01 -3.579923E-02  5.000000E-01  3.046242E-01 -3.612177E-02  0.000000E+00  1.996750E-02  4.607771E-04  2.683985E-18 -3.738871E-02  0.000000E+00
  3.203660E-01 -3.527501E-02  5.000000E-01  3.236030E-01 -3.559225E-02  0.000000E+00  1.971970E-02  6.414510E-04  2.824286E-18 -4.604210E-02  0.000000E+00
  3.396030E-01 -3.455883E-02  5.000000E-01  3.430342E-01 -3.486884E-02  0.000000E+00  1.941877E-02  8.105952E-04  2.132445E-18 -5.054292E-02  0.000000E+00
  3.592490E-01 -3.364898E-02  5.000000E-01  3.628786E-01 -3.394981E-02  0.000000E+00  1.906425E-02  9.676871E-04  8.541563E-19 -5.177889E-02  0.000000E+00
  3.792580E-01 -3.254301E-02  5.000000E-01  3.830897E-01 -3.283267E-02  0.000000E+00  1.865474E-02  1.112143E-03  9.817516E-19 -5.007729E-02  0.000000E+00
  3.995810E-01 -3.124114E-02  5.000000E-01  4.036179E-01 -3.151765E-02  0.000000E+00  1.819044E-02  1.241406E-03  7.855771E-19 -4.517190E-02  0.000000E+00
  4.201670E-01 -2.974765E-02  5.000000E-01  4.244118E-01 -3.000908E-02  0.000000E+00  1.767157E-02  1.353411E-03 -6.890583E-19 -3.679689E-02  0.000000E+00
  4.409600E-01 -2.806869E-02  5.000000E-01  4.454148E-01 -2.831316E-02  0.000000E+00  1.709988E-02  1.447001E-03 -7.164294E-19 -2.493889E-02  0.000000E+00
  4.619030E-01 -2.621244E-02  5.000000E-01  4.665693E-01 -2.643816E-02  0.000000E+00  1.648508E-02  1.519189E-03 -4.372189E-19 -9.589231E-03  0.000000E+00
  4.829360E-01 -2.419693E-02  5.000000E-01  4.878147E-01 -2.440229E-02  0.000000E+00  1.584485E-02  1.566735E-03 -3.553814E-20  9.060041E-03  0.000000E+00
  5.039990E-01 -2.204713E-02  5.000000E-01  5.090904E-01 -2.223079E-02  0.000000E+00  1.519904E-02  1.588999E-03 -5.063325E-20  3.032944E-02  0.000000E+00
  5.250310E-01 -1.979397E-02  5.000000E-01  5.303348E-01 -1.995487E-02  0.000000E+00  1.456631E-02  1.587735E-03 -6.420718E-19  5.325375E-02  0.000000E+00
  5.459710E-01 -1.747102E-02  5.000000E-01  5.514863E-01 -1.760846E-02  0.000000E+00  1.396238E-02  1.566838E-03 -3.713673E-19  7.680942E-02  0.000000E+00
  5.667600E-01 -1.511056E-02  5.000000E-01  5.724853E-01 -1.522417E-02  0.000000E+00  1.340204E-02  1.529663E-03 -4.585403E-20  1.002976E-01  0.000000E+00
  4.704230E-01  5.314891E-02  5.000000E-01  4.751754E-01  5.372464E-02  0.000000E+00  2.207991E-02  7.706440E-04 -6.074310E-18 -1.053366E+00  0.000000E+00
  4.494880E-01  5.235726E-02  5.000000E-01  4.540289E-01  5.292500E-02  0.000000E+00  2.188417E-02  8.581473E-04 -7.154898E-18 -1.046660E+00  0.000000E+00
  4.286690E-01  5.150977E-02  5.000000E-01  4.329997E-01  5.206896E-02  0.000000E+00  2.185356E-02  9.125992E-04 -8.561662E-18 -1.045430E+00  0.000000E+00
  4.080230E-01  5.062732E-02  5.000000E-01  4.121452E-01  5.117760E-02  0.000000E+00  2.199601E-02  9.734251E-04 -9.980707E-18 -1.045636E+00  0.000000E+00
  3.876050E-01  4.969504E-02  5.000000E-01  3.915210E-01  5.023590E-02  0.000000E+00  2.224967E-02  1.058509E-03 -1.110119E-17 -1.044663E+00  0.000000E+00
  3.674690E-01  4.869963E-02  5.000000E-01  3.711816E-01  4.923043E-02  0.000000E+00  2.252628E-02  1.164869E-03 -1.168581E-17 -1.041835E+00  0.000000E+00
  3.476650E-01  4.763112E-02  5.000000E-01  3.511776E-01  4.815113E-02  0.000000E+00  2.277018E-02  1.288195E-03 -1.206145E-17 -1.037208E+00  0.000000E+00
  3.282390E-01  4.648186E-02  5.000000E-01  3.315555E-01  4.699026E-02  0.000000E+00  2.296468E-02  1.425780E-03 -1.254669E-17 -1.031123E+00  0.000000E+00
  3.092330E-01  4.524656E-02  5.000000E-01  3.123575E-01  4.574249E-02  0.000000E+00  2.311235E-02  1.572728E-03 -1.228788E-17 -1.024194E+00  0.000000E+00
  2.906860E-01  4.392778E-02  5.000000E-01  2.936232E-01  4.441039E-02  0.000000E+00  2.322263E-02  1.724104E-03 -1.172340E-17 -1.017034E+00  0.000000E+00
  2.726330E-01  4.253076E-02  5.000000E-01  2.753879E-01  4.299926E-02  0.000000E+00  2.330720E-02  1.878977E-03 -1.166352E-17 -1.009904E+00  0.000000E+00
  2.551020E-01  4.106073E-02  5.000000E-01  2.576799E-01  4.151439E-02  0.000000E+00  2.337395E-02  2.038271E-03 -1.216372E-17 -1.002817E+00  0.000000E+00
  2.381210E-01  3.952349E-02  5.000000E-01  2.405274E-01  3.996162E-02  0.000000E+00  2.342865E-02  2.205237E-03 -1.211007E-17 -9.956388E-01  0.000000E+00
  2.217090E-01  3.792119E-02  5.000000E-01  2.239496E-01  3.834314E-02  0.000000E+00  2.347124E-02  2.380982E-03 -1.163917E-17 -9.886926E-01  0.000000E+00
  2.058840E-01  3.625638E-02  5.000000E-01  2.079648E-01  3.666152E-02  0.000000E+00  2.348221E-02  2.544038E-03 -1.243699E-17 -9.842173E-01  0.000000E+00
  1.906600E-01  3.455690E-02  5.000000E-01  1.925871E-01  3.494488E-02  0.000000E+00  2.345416E-02  2.657863E-03 -1.538637E-17 -9.856391E-01  0.000000E+00
  1.760460E-01  3.287359E-02  5.000000E-01  1.778255E-01  3.324457E-02  0.000000E+00  2.345473E-02  2.727186E-03 -2.194299E-17 -9.934866E-01  0.000000E+00
  1.620500E-01  3.123086E-02  5.000000E-01  1.636881E-01  3.158525E-02  0.000000E+00  2.357606E-02  2.794418E-03 -3.201282E-17 -1.004988E+00  0.000000E+00
  1.486750E-01  2.963100E-02  5.000000E-01  1.501781E-01  2.996923E-02  0.000000E+00  2.383927E-02  2.889408E-03 -4.710465E-17 -1.017206E+00  0.000000E+00
  1.359210E-01  2.806585E-02  5.000000E-01  1.372953E-01  2.838828E-02  0.000000E+00  2.419392E-02  3.020124E-03 -7.231170E-17 -1.028377E+00  0.000000E+00
  1.237890E-01  2.652658E-02  5.000000E-01  1.250407E-01  2.683346E-02  0.000000E+00  2.456901E-02  3.183939E-03 -1.141730E-16 -1.037847E+00  0.000000E+00
  1.122730E-01  2.500361E-02  5.000000E-01  1.134084E-01  2.529511E-02  0.000000E+00  2.491268E-02  3.375675E-03 -1.847791E-16 -1.045709E+00  0.000000E+00
  1.013710E-01  2.349125E-02  5.000000E-01  1.023964E-01  2.376748E-02  0.000000E+00  2.520196E-02  3.588833E-03 -3.036042E-16 -1.052572E+00  0.000000E+00
  9.107400E-02  2.198743E-02  5.000000E-01  9.199536E-02  2.224847E-02  0.000000E+00  2.544044E-02  3.822621E-03 -5.013955E-16 -1.059011E+00  0.000000E+00
  9.107400E-02  2.198743E-02  5.000000E-01  9.199536E-02  2.224847E-02  0.000000E+00  2.544044E-02  3.822621E-03 -5.013955E-16 -1.059011E+00  0.000000E+00
  8.137660E-02  2.048985E-02  5.000000E-01  8.220003E-02  2.073577E-02  0.000000E+00  2.563622E-02  4.075413E-03 -8.405195E-16 -1.065773E+00  0.000000E+00
  7.227050E-02  1.900090E-02  5.000000E-01  7.300197E-02  1.923178E-02  0.000000E+00  2.579374E-02  4.341284E-03 -1.432867E-15 -1.073873E+00  0.000000E+00
  6.374670E-02  1.752564E-02  5.000000E-01  6.439209E-02  1.774162E-02  0.000000E+00  2.592384E-02  4.621360E-03 -2.469647E-15 -1.083982E+00  0.000000E+00
  5.579720E-02  1.606734E-02  5.000000E-01  5.636231E-02  1.626860E-02  0.000000E+00  2.602712E-02  4.911799E-03 -4.265893E-15 -1.097008E+00  0.000000E+00
  4.841260E-02  1.463453E-02  5.000000E-01  4.890313E-02  1.482131E-02  0.000000E+00  2.610173E-02  5.207335E-03 -7.288291E-15 -1.113940E+00  0.000000E+00
  4.158390E-02  1.323496E-02  5.000000E-01  4.200547E-02  1.340762E-02  0.000000E+00  2.615278E-02  5.514405E-03 -1.211981E-14 -1.135170E+00  0.000000E+00
  3.530370E-02  1.187350E-02  5.000000E-01  3.566185E-02  1.203241E-02  0.000000E+00  2.616126E-02  5.827679E-03 -1.929509E-14 -1.161538E+00  0.000000E+00
  2.956270E-02  1.055964E-02  5.000000E-01  2.986287E-02  1.070528E-02  0.000000E+00  2.609990E-02  6.142317E-03 -2.895538E-14 -1.193708E+00  0.000000E+00
  2.435310E-02  9.299905E-03  5.000000E-01  2.460066E-02  9.432817E-03  0.000000E+00  2.592862E-02  6.470156E-03 -4.020383E-14 -1.231093E+00  0.000000E+00
  1.967110E-02  8.094763E-03  5.000000E-01  1.987137E-02  8.215504E-03  0.000000E+00  2.551277E-02  6.781773E-03 -5.032884E-14 -1.274003E+00  0.000000E+00
  1.550860E-02  6.951370E-03  5.000000E-01  1.566684E-02  7.060564E-03  0.000000E+00  2.467450E-02  7.028712E-03 -5.486111E-14 -1.322743E+00  0.000000E+00
  1.185930E-02  5.873377E-03  5.000000E-01  1.198068E-02  5.971685E-03  0.000000E+00  2.331645E-02  7.203752E-03 -4.944882E-14 -1.375465E+00  0.000000E+00
  8.724160E-03  4.856958E-03  5.000000E-01  8.813883E-03  4.945001E-03  0.000000E+00  2.156548E-02  7.334783E-03 -3.346788E-14 -1.431708E+00  0.000000E+00
  6.091130E-03  3.910301E-03  5.000000E-01  6.154263E-03  3.988783E-03  0.000000E+00  2.031148E-02  7.811595E-03 -1.367409E-14 -1.486871E+00  0.000000E+00
  3.952840E-03  3.036117E-03  5.000000E-01  3.994378E-03  3.105772E-03  0.000000E+00  2.112790E-02  9.725939E-03 -7.090537E-16 -1.524028E+00  0.000000E+00
  2.330070E-03  2.221609E-03  5.000000E-01  2.355220E-03  2.283038E-03  0.000000E+00  2.423828E-02  1.418971E-02  2.412658E-15 -1.531702E+00  0.000000E+00
  1.198080E-03  1.484888E-03  5.000000E-01  1.211798E-03  1.538877E-03  0.000000E+00  2.760598E-02  2.138874E-02 -4.541613E-16 -1.519859E+00  0.000000E+00
  5.019560E-04  8.590209E-04  5.000000E-01  5.086442E-04  9.066892E-04  0.000000E+00  3.042494E-02  3.351249E-02 -1.141256E-14 -1.531373E+00  0.000000E+00
  1.313430E-04  3.759455E-04  5.000000E-01  1.342884E-04  4.187353E-04  0.000000E+00  3.508478E-02  7.040022E-02 -3.112486E-14 -1.566525E+00  0.000000E+00
  8.078190E-06  6.782410E-05  5.000000E-01  9.778777E-06  1.075022E-04  0.000000E+00  3.056171E-02  1.733350E-01 -3.630087E-14 -1.484922E+00  0.000000E+00
 -1.602820E-06 -3.860327E-05  5.000000E-01  0.000000E+00  0.000000E+00  0.000000E+00 -4.939103E-03  2.521648E-01 -4.574363E-14 -1.190943E+00  0.000000E+00
  9.141860E-06 -1.486572E-04  5.000000E-01  1.085319E-05 -1.111654E-04  0.000000E+00 -4.976066E-02  1.967989E-01 -7.244745E-14 -4.689268E-01  0.000000E+00