 Title = "ADflow Slice Data"
Variables =  "CoordinateX"  "CoordinateY"  "CoordinateZ"  "XoC"  "YoC"  "ZoC" "VelocityX" "VelocityY" "VelocityZ" "CoefPressure" "Mach" 
Zone T= "Slice_0001 None Absolute Regular z = 0.50000000"
 Nodes =          192  Elements=          184  ZONETYPE=FELINESEG
 DATAPACKING=POINT
  5.667600E-01 -1.526085E-02  5.000000E-01  5.724853E-01 -1.537739E-02  0.000000E+00  1.342639E-02  1.543065E-03  1.595455E-18  9.703403E-02  0.000000E+00
  5.873410E-01 -1.287833E-02  5.000000E-01  5.932741E-01 -1.297081E-02  0.000000E+00  1.289261E-02  1.492591E-03  9.843126E-19  1.208627E-01  0.000000E+00
  6.076580E-01 -1.052616E-02  5.000000E-01  6.137963E-01 -1.059488E-02  0.000000E+00  1.242408E-02  1.429499E-03  3.611916E-19  1.438194E-01  0.000000E+00
  6.276600E-01 -8.239964E-03  5.000000E-01  6.340003E-01 -8.285599E-03  0.000000E+00  1.202192E-02  1.358756E-03  1.149462E-18  1.650675E-01  0.000000E+00
  6.472970E-01 -6.047008E-03  5.000000E-01  6.538356E-01 -6.070497E-03  0.000000E+00  1.167829E-02  1.285821E-03  1.612204E-18  1.841184E-01  0.000000E+00
  6.665260E-01 -3.961500E-03  5.000000E-01  6.732588E-01 -3.963928E-03  0.000000E+00  1.138263E-02  1.213737E-03 -9.061350E-21  2.011283E-01  0.000000E+00
  6.853050E-01 -1.993958E-03  5.000000E-01  6.922274E-01 -1.976515E-03  0.000000E+00  1.112658E-02  1.140637E-03 -1.004196E-18  2.168656E-01  0.000000E+00
  7.035980E-01 -1.604141E-04  5.000000E-01  7.107052E-01 -1.244545E-04  0.000000E+00  1.089729E-02  1.064155E-03 -7.417600E-19  2.317321E-01  0.000000E+00
  7.213750E-01  1.528513E-03  5.000000E-01  7.286617E-01  1.581529E-03  0.000000E+00  1.066991E-02  9.844415E-04 -7.544498E-19  2.455201E-01  0.000000E+00
  7.386080E-01  3.069700E-03  5.000000E-01  7.460687E-01  3.138281E-03  0.000000E+00  1.041410E-02  9.033194E-04 -2.351705E-19  2.582426E-01  0.000000E+00
  7.552750E-01  4.469151E-03  5.000000E-01  7.629040E-01  4.551864E-03  0.000000E+00  1.011101E-02  8.248079E-04  3.310737E-19  2.703628E-01  0.000000E+00
  7.713580E-01  5.740351E-03  5.000000E-01  7.791495E-01  5.835902E-03  0.000000E+00  9.773103E-03  7.505750E-04 -4.657802E-20  2.824440E-01  0.000000E+00
  7.868410E-01  6.894704E-03  5.000000E-01  7.947888E-01  7.001912E-03  0.000000E+00  9.467313E-03  6.632215E-04 -6.212312E-19  2.962102E-01  0.000000E+00
  8.017160E-01  7.872414E-03  5.000000E-01  8.098140E-01  7.989496E-03  0.000000E+00  9.294961E-03  5.398063E-04  1.498527E-19  3.120031E-01  0.000000E+00
  8.159740E-01  8.590126E-03  5.000000E-01  8.242160E-01  8.714456E-03  0.000000E+00  9.320034E-03  3.857315E-04  4.847423E-19  3.248553E-01  0.000000E+00
  8.296120E-01  9.030202E-03  5.000000E-01  8.379918E-01  9.158977E-03  0.000000E+00  9.546661E-03  2.186420E-04 -6.976158E-20  3.298938E-01  0.000000E+00
  8.426300E-01  9.208906E-03  5.000000E-01  8.511412E-01  9.339486E-03  0.000000E+00  9.951682E-03  4.536469E-05 -5.203471E-21  3.270555E-01  0.000000E+00
  8.550290E-01  9.157608E-03  5.000000E-01  8.636654E-01  9.287669E-03  0.000000E+00  1.050700E-02 -1.330928E-04  6.983160E-20  3.183206E-01  0.000000E+00
  8.668160E-01  8.914034E-03  5.000000E-01  8.755715E-01  9.041635E-03  0.000000E+00  1.118375E-02 -3.155813E-04  9.845352E-20  3.050354E-01  0.000000E+00
  8.779950E-01  8.519445E-03  5.000000E-01  8.868634E-01  8.643062E-03  0.000000E+00  1.195218E-02 -4.995406E-04  6.054701E-19  2.877591E-01  0.000000E+00
  8.885730E-01  8.013114E-03  5.000000E-01  8.975482E-01  8.131617E-03  0.000000E+00  1.278301E-02 -6.823904E-04  1.176553E-18  2.670789E-01  0.000000E+00
  8.985610E-01  7.428410E-03  5.000000E-01  9.076371E-01  7.541008E-03  0.000000E+00  1.364368E-02 -8.573804E-04  1.223910E-18  2.435156E-01  0.000000E+00
  9.079670E-01  6.799106E-03  5.000000E-01  9.171381E-01  6.905349E-03  0.000000E+00  1.449492E-02 -1.012142E-03  1.452527E-18  2.175307E-01  0.000000E+00
  9.168010E-01  6.157709E-03  5.000000E-01  9.260613E-01  6.257474E-03  0.000000E+00  1.529914E-02 -1.137529E-03  1.827953E-18  1.901809E-01  0.000000E+00
  9.168010E-01  6.157709E-03  5.000000E-01  9.260613E-01  6.257474E-03  0.000000E+00  1.529914E-02 -1.137529E-03  1.827953E-18  1.901809E-01  0.000000E+00
  9.250730E-01  5.529021E-03  5.000000E-01  9.344168E-01  5.622438E-03  0.000000E+00  1.603316E-02 -1.234769E-03  1.643959E-18  1.629901E-01  0.000000E+00
  9.327940E-01  4.927285E-03  5.000000E-01  9.422158E-01  5.014624E-03  0.000000E+00  1.669646E-02 -1.315557E-03  8.929425E-19  1.372715E-01  0.000000E+00
  9.399760E-01  4.355775E-03  5.000000E-01  9.494703E-01  4.437343E-03  0.000000E+00  1.730525E-02 -1.391427E-03  3.800160E-19  1.132939E-01  0.000000E+00
  9.466320E-01  3.815196E-03  5.000000E-01  9.561935E-01  3.891305E-03  0.000000E+00  1.787970E-02 -1.466909E-03  1.871312E-18  9.031987E-02  0.000000E+00
  9.527730E-01  3.306368E-03  5.000000E-01  9.623966E-01  3.377339E-03  0.000000E+00  1.844447E-02 -1.548495E-03  5.150159E-18  6.781026E-02  0.000000E+00
  9.584110E-01  2.827153E-03  5.000000E-01  9.680915E-01  2.893283E-03  0.000000E+00  1.903226E-02 -1.646833E-03  5.139936E-18  4.553285E-02  0.000000E+00
  9.635570E-01  2.374317E-03  5.000000E-01  9.732895E-01  2.435875E-03  0.000000E+00  1.967697E-02 -1.767802E-03 -9.961582E-18  2.277015E-02  0.000000E+00
  9.682220E-01  1.946792E-03  5.000000E-01  9.780016E-01  2.004032E-03  0.000000E+00  2.041071E-02 -1.912038E-03 -4.503903E-17 -1.566207E-03  0.000000E+00
  9.724140E-01  1.545859E-03  5.000000E-01  9.822359E-01  1.599050E-03  0.000000E+00  2.128151E-02 -2.087548E-03 -5.356584E-17 -2.810659E-02  0.000000E+00
  9.761430E-01  1.171440E-03  5.000000E-01  9.860026E-01  1.220850E-03  0.000000E+00  2.237148E-02 -2.311491E-03  9.435421E-17 -5.730303E-02  0.000000E+00
  9.794160E-01  8.242702E-04  5.000000E-01  9.893086E-01  8.701740E-04  0.000000E+00  2.378263E-02 -2.597288E-03  4.860079E-16 -9.023648E-02  0.000000E+00
  9.822400E-01  5.074292E-04  5.000000E-01  9.921611E-01  5.501332E-04  0.000000E+00  2.556585E-02 -2.947131E-03  7.013923E-16 -1.283599E-01  0.000000E+00
  9.846200E-01  2.260649E-04  5.000000E-01  9.945652E-01  2.659275E-04  0.000000E+00  2.759011E-02 -3.347801E-03 -7.186439E-16 -1.720222E-01  0.000000E+00
  9.865620E-01 -1.453614E-05  5.000000E-01  9.965268E-01  2.289666E-05  0.000000E+00  2.940903E-02 -3.711507E-03 -5.352661E-15 -2.193327E-01  0.000000E+00
  9.880680E-01 -2.086060E-04  5.000000E-01  9.980480E-01 -1.731331E-04  0.000000E+00  2.987481E-02 -3.826597E-03 -9.876361E-15 -2.765424E-01  0.000000E+00
  9.891420E-01 -3.514240E-04  5.000000E-01  9.991328E-01 -3.173933E-04  0.000000E+00  2.812734E-02 -3.910994E-03  3.002853E-15 -3.434267E-01  0.000000E+00
  9.897860E-01 -4.389487E-04  5.000000E-01  9.997833E-01 -4.058020E-04  0.000000E+00  3.788469E-02 -4.013110E-03  5.841609E-14 -2.893152E-01  0.000000E+00
  9.900000E-01 -4.683023E-04  5.000000E-01  9.999995E-01 -4.354520E-04  0.000000E+00  2.618751E-02  5.267746E-03  5.216540E-14 -5.819414E-01  0.000000E+00
  9.900000E-01 -1.843754E-04  5.000000E-01  9.999995E-01 -1.486578E-04  0.000000E+00  1.229699E-03 -7.885023E-03  3.856733E-15 -8.087380E-01  0.000000E+00
  9.900000E-01  9.955148E-05  5.000000E-01  9.999995E-01  1.381364E-04  0.000000E+00 -4.468713E-04 -2.274836E-02  2.880859E-15 -6.282844E-01  0.000000E+00
  9.900000E-01  3.834784E-04  5.000000E-01  9.999995E-01  4.249307E-04  0.000000E+00 -1.435916E-04 -8.862757E-03  2.826978E-15 -6.282418E-01  0.000000E+00
  9.900000E-01  6.674052E-04  5.000000E-01  9.999995E-01  7.117249E-04  0.000000E+00  4.646466E-04 -5.229737E-03  3.125450E-15 -6.881240E-01  0.000000E+00
  9.900000E-01  9.513321E-04  5.000000E-01  9.999995E-01  9.985191E-04  0.000000E+00  6.797158E-03 -6.632243E-03  3.444229E-15 -6.298723E-01  0.000000E+00
  9.900000E-01  9.513321E-04  5.000000E-01  9.999995E-01  9.985191E-04  0.000000E+00  6.797158E-03 -6.632243E-03  3.444229E-15 -6.298723E-01  0.000000E+00
  9.897890E-01  1.017904E-03  5.000000E-01  9.997864E-01  1.065763E-03  0.000000E+00  9.015527E-03 -3.469498E-03  3.078946E-15 -5.523114E-01  0.000000E+00
  9.891540E-01  1.218674E-03  5.000000E-01  9.991450E-01  1.268561E-03  0.000000E+00  4.567714E-03 -1.351260E-03  1.994045E-15 -5.709149E-01  0.000000E+00
  9.880950E-01  1.555408E-03  5.000000E-01  9.980753E-01  1.608695E-03  0.000000E+00  3.024878E-03 -9.609517E-04  1.047315E-15 -5.704751E-01  0.000000E+00
  9.866100E-01  2.031333E-03  5.000000E-01  9.965753E-01  2.089427E-03  0.000000E+00  1.983954E-03 -6.498426E-04  4.781016E-16 -5.625748E-01  0.000000E+00
  9.846960E-01  2.650662E-03  5.000000E-01  9.946419E-01  2.715011E-03  0.000000E+00  9.961708E-04 -3.235483E-04  1.994382E-16 -5.589365E-01  0.000000E+00
  9.823490E-01  3.418251E-03  5.000000E-01  9.922712E-01  3.490351E-03  0.000000E+00  1.852837E-04 -5.928365E-05  7.147101E-17 -5.579564E-01  0.000000E+00
  9.795670E-01  4.338748E-03  5.000000E-01  9.894611E-01  4.420144E-03  0.000000E+00 -4.275172E-04  1.426276E-04  1.143916E-17 -5.581975E-01  0.000000E+00
  9.763420E-01  5.417934E-03  5.000000E-01  9.862036E-01  5.510229E-03  0.000000E+00 -8.712862E-04  2.931817E-04 -1.328701E-17 -5.596413E-01  0.000000E+00
  9.726710E-01  6.659543E-03  5.000000E-01  9.824955E-01  6.764376E-03  0.000000E+00 -1.170324E-03  3.976007E-04 -1.689978E-17 -5.621743E-01  0.000000E+00
  9.685460E-01  8.066752E-03  5.000000E-01  9.783288E-01  8.185797E-03  0.000000E+00 -1.341908E-03  4.593661E-04 -1.088562E-17 -5.653769E-01  0.000000E+00
  9.639600E-01  9.641706E-03  5.000000E-01  9.736965E-01  9.776656E-03  0.000000E+00 -1.402670E-03  4.830427E-04 -4.349887E-18 -5.687414E-01  0.000000E+00
  9.589060E-01  1.138655E-02  5.000000E-01  9.685915E-01  1.153912E-02  0.000000E+00 -1.373025E-03  4.749006E-04 -1.177935E-18 -5.717918E-01  0.000000E+00
  9.533750E-01  1.330247E-02  5.000000E-01  9.630046E-01  1.347439E-02  0.000000E+00 -1.278837E-03  4.432676E-04 -4.652515E-19 -5.741644E-01  0.000000E+00
  9.473580E-01  1.538821E-02  5.000000E-01  9.569269E-01  1.558119E-02  0.000000E+00 -1.149940E-03  3.982952E-04 -5.505062E-19 -5.756741E-01  0.000000E+00
  9.408450E-01  1.764045E-02  5.000000E-01  9.503481E-01  1.785617E-02  0.000000E+00 -1.016552E-03  3.506830E-04 -1.450539E-18 -5.763503E-01  0.000000E+00
  9.338260E-01  2.005388E-02  5.000000E-01  9.432582E-01  2.029398E-02  0.000000E+00 -9.053742E-04  3.099274E-04 -1.104393E-18 -5.764215E-01  0.000000E+00
  9.262910E-01  2.262008E-02  5.000000E-01  9.356471E-01  2.288610E-02  0.000000E+00 -8.369881E-04  2.830582E-04 -3.203664E-19 -5.762403E-01  0.000000E+00
  9.182290E-01  2.532620E-02  5.000000E-01  9.275037E-01  2.561955E-02  0.000000E+00 -8.253027E-04  2.741581E-04  7.940892E-19 -5.761772E-01  0.000000E+00
  9.096280E-01  2.815455E-02  5.000000E-01  9.188158E-01  2.847646E-02  0.000000E+00 -8.780035E-04  2.844677E-04  1.567305E-18 -5.765929E-01  0.000000E+00
  9.004770E-01  3.108164E-02  5.000000E-01  9.095724E-01  3.143311E-02  0.000000E+00 -9.969159E-04  3.126069E-04  1.109733E-18 -5.778024E-01  0.000000E+00
  8.907650E-01  3.407653E-02  5.000000E-01  8.997623E-01  3.445825E-02  0.000000E+00 -1.179245E-03  3.542532E-04  1.886219E-19 -5.798911E-01  0.000000E+00
  8.804800E-01  3.709783E-02  5.000000E-01  8.893735E-01  3.751006E-02  0.000000E+00 -1.418146E-03  4.017371E-04 -1.283459E-18 -5.827595E-01  0.000000E+00
  8.696090E-01  4.008976E-02  5.000000E-01  8.783927E-01  4.053221E-02  0.000000E+00 -1.699324E-03  4.456161E-04 -3.895379E-19 -5.863424E-01  0.000000E+00
  8.696090E-01  4.008976E-02  5.000000E-01  8.783927E-01  4.053221E-02  0.000000E+00 -1.699324E-03  4.456161E-04 -3.895379E-19 -5.863424E-01  0.000000E+00
  8.581400E-01  4.298026E-02  5.000000E-01  8.668079E-01  4.345189E-02  0.000000E+00 -2.002744E-03  4.769667E-04  1.305010E-18 -5.896497E-01  0.000000E+00
  8.460600E-01  4.568513E-02  5.000000E-01  8.546059E-01  4.618407E-02  0.000000E+00 -2.310657E-03  4.856281E-04  2.887648E-19 -5.904784E-01  0.000000E+00
  8.333640E-01  4.812449E-02  5.000000E-01  8.417817E-01  4.864807E-02  0.000000E+00 -2.567986E-03  4.510017E-04 -8.841400E-19 -5.920312E-01  0.000000E+00
  8.200460E-01  5.022275E-02  5.000000E-01  8.283292E-01  5.076752E-02  0.000000E+00 -2.541176E-03  3.448883E-04 -4.627103E-19 -6.135851E-01  0.000000E+00
  8.061050E-01  5.191245E-02  5.000000E-01  8.142474E-01  5.247429E-02  0.000000E+00 -1.648108E-03  1.620897E-04  4.539334E-19 -6.843899E-01  0.000000E+00
  7.915460E-01  5.316783E-02  5.000000E-01  7.995413E-01  5.374235E-02  0.000000E+00  9.943001E-04 -5.257461E-05  1.526736E-18 -8.104424E-01  0.000000E+00
  7.763770E-01  5.402806E-02  5.000000E-01  7.842192E-01  5.461126E-02  0.000000E+00  5.995914E-03 -2.164052E-04  1.701680E-18 -9.517797E-01  0.000000E+00
  7.606070E-01  5.456240E-02  5.000000E-01  7.682899E-01  5.515100E-02  0.000000E+00  1.261684E-02 -2.321967E-04 -3.569886E-19 -1.050223E+00  0.000000E+00
  7.442510E-01  5.477813E-02  5.000000E-01  7.517687E-01  5.536891E-02  0.000000E+00  1.846281E-02 -4.380668E-05 -5.332564E-18 -1.081565E+00  0.000000E+00
  7.273250E-01  5.469306E-02  5.000000E-01  7.346718E-01  5.528297E-02  0.000000E+00  2.146464E-02  2.579864E-04 -1.066303E-17 -1.067187E+00  0.000000E+00
  7.098490E-01  5.435963E-02  5.000000E-01  7.170193E-01  5.494618E-02  0.000000E+00  2.168547E-02  4.897305E-04 -1.326009E-17 -1.042138E+00  0.000000E+00
  6.918480E-01  5.387392E-02  5.000000E-01  6.988365E-01  5.445557E-02  0.000000E+00  2.054374E-02  5.401710E-04 -1.347257E-17 -1.030998E+00  0.000000E+00
  6.733520E-01  5.338612E-02  5.000000E-01  6.801537E-01  5.396284E-02  0.000000E+00  1.933769E-02  3.989797E-04 -1.161354E-17 -1.044487E+00  0.000000E+00
  6.543930E-01  5.309587E-02  5.000000E-01  6.610032E-01  5.366966E-02  0.000000E+00  1.876212E-02  1.317588E-04 -8.254546E-18 -1.079126E+00  0.000000E+00
  6.350090E-01  5.312280E-02  5.000000E-01  6.414235E-01  5.369686E-02  0.000000E+00  1.904295E-02 -1.442157E-04 -5.617988E-18 -1.119531E+00  0.000000E+00
  6.152440E-01  5.339925E-02  5.000000E-01  6.214589E-01  5.397610E-02  0.000000E+00  1.997291E-02 -3.451646E-04 -4.769906E-18 -1.151150E+00  0.000000E+00
  5.951420E-01  5.381460E-02  5.000000E-01  6.011539E-01  5.439564E-02  0.000000E+00  2.109661E-02 -4.343329E-04 -5.066626E-18 -1.166998E+00  0.000000E+00
  5.747530E-01  5.423773E-02  5.000000E-01  5.805590E-01  5.482304E-02  0.000000E+00  2.204557E-02 -3.760524E-04 -5.615081E-18 -1.164594E+00  0.000000E+00
  5.541290E-01  5.452304E-02  5.000000E-01  5.597267E-01  5.511124E-02  0.000000E+00  2.265027E-02 -1.589578E-04 -5.972405E-18 -1.145389E+00  0.000000E+00
  5.333260E-01  5.453220E-02  5.000000E-01  5.387136E-01  5.512050E-02  0.000000E+00  2.284879E-02  1.434435E-04 -5.956062E-18 -1.116880E+00  0.000000E+00
  5.124010E-01  5.425554E-02  5.000000E-01  5.175773E-01  5.484104E-02  0.000000E+00  2.269191E-02  4.231888E-04 -5.600981E-18 -1.088745E+00  0.000000E+00
  4.914140E-01  5.374505E-02  5.000000E-01  4.963783E-01  5.432540E-02  0.000000E+00  2.236538E-02  6.358154E-04 -5.723982E-18 -1.066489E+00  0.000000E+00
  4.704230E-01  5.305865E-02  5.000000E-01  4.751754E-01  5.363206E-02  0.000000E+00  2.205058E-02  7.796875E-04 -6.627957E-18 -1.052200E+00  0.000000E+00
  1.696960E-04 -4.796213E-04  5.000000E-01  1.730287E-04 -4.468854E-04  0.000000E+00 -6.439716E-02  9.278470E-02 -6.594797E-14  5.417240E-01  0.000000E+00
  8.054360E-04 -9.760087E-04  5.000000E-01  8.151890E-04 -9.482857E-04  0.000000E+00 -4.693551E-02  3.280626E-02 -5.124017E-14  1.107427E+00  0.000000E+00
  1.973980E-03 -1.581430E-03  5.000000E-01  1.995534E-03 -1.559821E-03  0.000000E+00 -2.103038E-02  1.044249E-02 -2.822886E-14  1.176724E+00  0.000000E+00
  3.614630E-03 -2.293899E-03  5.000000E-01  3.652753E-03 -2.279485E-03  0.000000E+00 -4.028157E-03  1.756296E-03 -9.702107E-15  1.152735E+00  0.000000E+00
  5.721210E-03 -3.121809E-03  5.000000E-01  5.780607E-03 -3.115756E-03  0.000000E+00  5.046247E-03 -1.866663E-03 -9.474147E-17  1.122234E+00  0.000000E+00
  8.297500E-03 -4.062647E-03  5.000000E-01  8.382914E-03 -4.066096E-03  0.000000E+00  9.352293E-03 -3.262746E-03  2.433986E-15  1.077808E+00  0.000000E+00
  1.136560E-02 -5.096773E-03  5.000000E-01  1.148200E-02 -5.110665E-03  0.000000E+00  1.111638E-02 -3.609262E-03  1.799663E-15  1.023338E+00  0.000000E+00
  1.493280E-02 -6.212947E-03  5.000000E-01  1.508522E-02 -6.238111E-03  0.000000E+00  1.170761E-02 -3.572149E-03  6.882669E-16  9.688384E-01  0.000000E+00
  1.899460E-02 -7.419507E-03  5.000000E-01  1.918804E-02 -7.456857E-03  0.000000E+00  1.196005E-02 -3.500487E-03  5.562395E-17  9.182047E-01  0.000000E+00
  2.354800E-02 -8.732538E-03  5.000000E-01  2.378743E-02 -8.783147E-03  0.000000E+00  1.229074E-02 -3.491002E-03 -1.176429E-16  8.684188E-01  0.000000E+00
  2.860130E-02 -1.014760E-02  5.000000E-01  2.889176E-02 -1.021250E-02  0.000000E+00  1.281793E-02 -3.528385E-03 -9.129198E-17  8.168319E-01  0.000000E+00
  3.416500E-02 -1.165370E-02  5.000000E-01  3.451165E-02 -1.173381E-02  0.000000E+00  1.352279E-02 -3.594069E-03 -3.517319E-17  7.646708E-01  0.000000E+00
  4.024810E-02 -1.324176E-02  5.000000E-01  4.065618E-02 -1.333790E-02  0.000000E+00  1.434649E-02 -3.668968E-03 -3.192385E-18  7.128477E-01  0.000000E+00
  4.686030E-02 -1.489961E-02  5.000000E-01  4.733516E-02 -1.501250E-02  0.000000E+00  1.522464E-02 -3.733425E-03  4.810998E-18  6.611460E-01  0.000000E+00
  5.401090E-02 -1.661575E-02  5.000000E-01  5.455797E-02 -1.674597E-02  0.000000E+00  1.611062E-02 -3.779200E-03  3.639818E-18  6.096335E-01  0.000000E+00
  6.170850E-02 -1.838174E-02  5.000000E-01  6.233331E-02 -1.852980E-02  0.000000E+00  1.697894E-02 -3.798113E-03  1.627322E-18  5.579376E-01  0.000000E+00
  6.996310E-02 -2.018350E-02  5.000000E-01  7.067127E-02 -2.034975E-02  0.000000E+00  1.781598E-02 -3.777805E-03  1.709581E-18  5.053558E-01  0.000000E+00
  7.878500E-02 -2.200167E-02  5.000000E-01  7.958226E-02 -2.218628E-02  0.000000E+00  1.861873E-02 -3.714776E-03  1.123884E-18  4.520835E-01  0.000000E+00
  8.818390E-02 -2.381744E-02  5.000000E-01  8.907608E-02 -2.402039E-02  0.000000E+00  1.938877E-02 -3.609227E-03 -5.575367E-19  3.985509E-01  0.000000E+00
  9.816930E-02 -2.560864E-02  5.000000E-01  9.916232E-02 -2.582968E-02  0.000000E+00  2.012098E-02 -3.456659E-03  1.079501E-19  3.448108E-01  0.000000E+00
  1.087500E-01 -2.734884E-02  5.000000E-01  1.098499E-01 -2.758746E-02  0.000000E+00  2.079983E-02 -3.253758E-03  3.587666E-19  2.912713E-01  0.000000E+00
  1.199340E-01 -2.901121E-02  5.000000E-01  1.211468E-01 -2.926661E-02  0.000000E+00  2.139163E-02 -2.995682E-03  5.126663E-20  2.386132E-01  0.000000E+00
  1.317280E-01 -3.056421E-02  5.000000E-01  1.330599E-01 -3.083530E-02  0.000000E+00  2.183757E-02 -2.673705E-03  5.068488E-19  1.876483E-01  0.000000E+00
  1.441380E-01 -3.197108E-02  5.000000E-01  1.455953E-01 -3.225637E-02  0.000000E+00  2.206855E-02 -2.287617E-03  1.219162E-18  1.401046E-01  0.000000E+00
  1.441380E-01 -3.197108E-02  5.000000E-01  1.455953E-01 -3.225637E-02  0.000000E+00  2.206855E-02 -2.287617E-03  1.219162E-18  1.401046E-01  0.000000E+00
  1.571670E-01 -3.319590E-02  5.000000E-01  1.587558E-01 -3.349356E-02  0.000000E+00  2.203488E-02 -1.850494E-03  1.037176E-18  9.848311E-02  0.000000E+00
  1.708170E-01 -3.420418E-02  5.000000E-01  1.725437E-01 -3.451203E-02  0.000000E+00  2.174563E-02 -1.390931E-03  6.851593E-19  6.543487E-02  0.000000E+00
  1.850860E-01 -3.497231E-02  5.000000E-01  1.869568E-01 -3.528791E-02  0.000000E+00  2.130165E-02 -9.605169E-04  1.145006E-18  4.325427E-02  0.000000E+00
  1.999720E-01 -3.550825E-02  5.000000E-01  2.019931E-01 -3.582927E-02  0.000000E+00  2.087877E-02 -6.263653E-04  8.026349E-19  3.268229E-02  0.000000E+00
  2.154670E-01 -3.587582E-02  5.000000E-01  2.176446E-01 -3.620054E-02  0.000000E+00  2.061655E-02 -4.147928E-04  7.731937E-20  2.948140E-02  0.000000E+00
  2.315610E-01 -3.614323E-02  5.000000E-01  2.339011E-01 -3.647066E-02  0.000000E+00  2.050258E-02 -2.652285E-04  1.455923E-19  2.381278E-02  0.000000E+00
  2.482400E-01 -3.630160E-02  5.000000E-01  2.507486E-01 -3.663062E-02  0.000000E+00  2.044368E-02 -1.124404E-04  3.273654E-19  1.032590E-02  0.000000E+00
  2.654840E-01 -3.632840E-02  5.000000E-01  2.681667E-01 -3.665769E-02  0.000000E+00  2.037289E-02  5.847569E-05  3.756824E-19 -7.869085E-03  0.000000E+00
  2.832720E-01 -3.619757E-02  5.000000E-01  2.861343E-01 -3.652555E-02  0.000000E+00  2.025198E-02  2.452045E-04  5.542792E-19 -2.580367E-02  0.000000E+00
  3.015770E-01 -3.588718E-02  5.000000E-01  3.046242E-01 -3.621202E-02  0.000000E+00  2.006430E-02  4.381995E-04  6.335784E-19 -4.007177E-02  0.000000E+00
  3.203660E-01 -3.538331E-02  5.000000E-01  3.236030E-01 -3.570306E-02  0.000000E+00  1.980761E-02  6.267614E-04  6.075654E-19 -4.947621E-02  0.000000E+00
  3.396030E-01 -3.468021E-02  5.000000E-01  3.430342E-01 -3.499286E-02  0.000000E+00  1.948643E-02  8.037508E-04  5.359491E-19 -5.429879E-02  0.000000E+00
  3.592490E-01 -3.377617E-02  5.000000E-01  3.628786E-01 -3.407969E-02  0.000000E+00  1.910637E-02  9.665126E-04  5.082190E-19 -5.529066E-02  0.000000E+00
  3.792580E-01 -3.267094E-02  5.000000E-01  3.830897E-01 -3.296330E-02  0.000000E+00  1.867365E-02  1.113618E-03  2.603978E-19 -5.290043E-02  0.000000E+00
  3.995810E-01 -3.136745E-02  5.000000E-01  4.036179E-01 -3.164664E-02  0.000000E+00  1.819521E-02  1.242929E-03  6.404814E-20 -4.716404E-02  0.000000E+00
  4.201670E-01 -2.987291E-02  5.000000E-01  4.244118E-01 -3.013701E-02  0.000000E+00  1.767589E-02  1.353093E-03  7.150087E-19 -3.810520E-02  0.000000E+00
  4.409600E-01 -2.819665E-02  5.000000E-01  4.454148E-01 -2.844382E-02  0.000000E+00  1.711757E-02  1.444118E-03  1.077594E-18 -2.593275E-02  0.000000E+00
  4.619030E-01 -2.634876E-02  5.000000E-01  4.665693E-01 -2.657727E-02  0.000000E+00  1.652392E-02  1.515167E-03  7.502268E-19 -1.081764E-02  0.000000E+00
  4.829360E-01 -2.434457E-02  5.000000E-01  4.878147E-01 -2.455285E-02  0.000000E+00  1.590355E-02  1.564283E-03  4.784070E-19  7.110543E-03  0.000000E+00
  5.039990E-01 -2.220536E-02  5.000000E-01  5.090904E-01 -2.239203E-02  0.000000E+00  1.526883E-02  1.590164E-03  1.412075E-18  2.752892E-02  0.000000E+00
  5.250310E-01 -1.995834E-02  5.000000E-01  5.303348E-01 -2.012232E-02  0.000000E+00  1.463386E-02  1.593495E-03  1.954746E-18  4.982676E-02  0.000000E+00
  5.459710E-01 -1.763361E-02  5.000000E-01  5.514863E-01 -1.777411E-02  0.000000E+00  1.401344E-02  1.577176E-03  1.382415E-18  7.318615E-02  0.000000E+00
  5.667600E-01 -1.526085E-02  5.000000E-01  5.724853E-01 -1.537739E-02  0.000000E+00  1.342639E-02  1.543065E-03  1.595455E-18  9.703403E-02  0.000000E+00
  4.704230E-01  5.305865E-02  5.000000E-01  4.751754E-01  5.363206E-02  0.000000E+00  2.205058E-02  7.796875E-04 -6.627957E-18 -1.052200E+00  0.000000E+00
  4.494880E-01  5.225910E-02  5.000000E-01  4.540289E-01  5.282444E-02  0.000000E+00  2.185155E-02  8.623669E-04 -7.345857E-18 -1.046040E+00  0.000000E+00
  4.286690E-01  5.140894E-02  5.000000E-01  4.329997E-01  5.196569E-02  0.000000E+00  2.182316E-02  9.114763E-04 -8.487904E-18 -1.045475E+00  0.000000E+00
  4.080230E-01  5.052893E-02  5.000000E-01  4.121452E-01  5.107680E-02  0.000000E+00  2.197374E-02  9.680786E-04 -1.002890E-17 -1.046272E+00  0.000000E+00
  3.876050E-01  4.960243E-02  5.000000E-01  3.915210E-01  5.014094E-02  0.000000E+00  2.223861E-02  1.050844E-03 -1.077884E-17 -1.045683E+00  0.000000E+00
  3.674690E-01  4.861431E-02  5.000000E-01  3.711816E-01  4.914284E-02  0.000000E+00  2.252535E-02  1.156758E-03 -1.139729E-17 -1.042996E+00  0.000000E+00
  3.476650E-01  4.755289E-02  5.000000E-01  3.511776E-01  4.807070E-02  0.000000E+00  2.277550E-02  1.281348E-03 -1.222988E-17 -1.038276E+00  0.000000E+00
  3.282390E-01  4.640897E-02  5.000000E-01  3.315555E-01  4.691523E-02  0.000000E+00  2.297113E-02  1.421249E-03 -1.237082E-17 -1.031947E+00  0.000000E+00
  3.092330E-01  4.517658E-02  5.000000E-01  3.123575E-01  4.567039E-02  0.000000E+00  2.311440E-02  1.569804E-03 -1.195799E-17 -1.024801E+00  0.000000E+00
  2.906860E-01  4.385975E-02  5.000000E-01  2.936232E-01  4.434026E-02  0.000000E+00  2.321675E-02  1.720755E-03 -1.196848E-17 -1.017601E+00  0.000000E+00
  2.726330E-01  4.246528E-02  5.000000E-01  2.753879E-01  4.293172E-02  0.000000E+00  2.329426E-02  1.873432E-03 -1.217607E-17 -1.010643E+00  0.000000E+00
  2.551020E-01  4.099952E-02  5.000000E-01  2.576799E-01  4.145114E-02  0.000000E+00  2.335821E-02  2.029516E-03 -1.181767E-17 -1.003904E+00  0.000000E+00
  2.381210E-01  3.946887E-02  5.000000E-01  2.405274E-01  3.990504E-02  0.000000E+00  2.341553E-02  2.192893E-03 -1.187443E-17 -9.971944E-01  0.000000E+00
  2.217090E-01  3.787575E-02  5.000000E-01  2.239496E-01  3.829583E-02  0.000000E+00  2.346547E-02  2.365138E-03 -1.252668E-17 -9.907627E-01  0.000000E+00
  2.058840E-01  3.622267E-02  5.000000E-01  2.079648E-01  3.662606E-02  0.000000E+00  2.348747E-02  2.525705E-03 -1.335891E-17 -9.867274E-01  0.000000E+00
  1.906600E-01  3.453651E-02  5.000000E-01  1.925871E-01  3.492287E-02  0.000000E+00  2.347288E-02  2.639362E-03 -1.525114E-17 -9.883605E-01  0.000000E+00
  1.760460E-01  3.286620E-02  5.000000E-01  1.778255E-01  3.323569E-02  0.000000E+00  2.348626E-02  2.710783E-03 -2.062817E-17 -9.961370E-01  0.000000E+00
  1.620500E-01  3.123496E-02  5.000000E-01  1.636881E-01  3.158798E-02  0.000000E+00  2.361618E-02  2.781064E-03 -2.987645E-17 -1.007357E+00  0.000000E+00
  1.486750E-01  2.964462E-02  5.000000E-01  1.501781E-01  2.998158E-02  0.000000E+00  2.388239E-02  2.879131E-03 -4.410849E-17 -1.019179E+00  0.000000E+00
  1.359210E-01  2.808694E-02  5.000000E-01  1.372953E-01  2.840817E-02  0.000000E+00  2.423555E-02  3.012647E-03 -6.831508E-17 -1.029920E+00  0.000000E+00
  1.237890E-01  2.655324E-02  5.000000E-01  1.250407E-01  2.685898E-02  0.000000E+00  2.460688E-02  3.179012E-03 -1.071960E-16 -1.038971E+00  0.000000E+00
  1.122730E-01  2.503419E-02  5.000000E-01  1.134084E-01  2.532458E-02  0.000000E+00  2.494654E-02  3.373151E-03 -1.720413E-16 -1.046447E+00  0.000000E+00
  1.013710E-01  2.352434E-02  5.000000E-01  1.023964E-01  2.379949E-02  0.000000E+00  2.523259E-02  3.588631E-03 -2.838879E-16 -1.052962E+00  0.000000E+00
  9.107400E-02  2.202187E-02  5.000000E-01  9.199536E-02  2.228184E-02  0.000000E+00  2.546890E-02  3.824674E-03 -4.752189E-16 -1.059089E+00  0.000000E+00
  9.107400E-02  2.202187E-02  5.000000E-01  9.199536E-02  2.228184E-02  0.000000E+00  2.546890E-02  3.824674E-03 -4.752189E-16 -1.059089E+00  0.000000E+00
  8.137660E-02  2.052471E-02  5.000000E-01  8.220003E-02  2.076957E-02  0.000000E+00  2.566337E-02  4.079645E-03 -8.039520E-16 -1.065569E+00  0.000000E+00
  7.227050E-02  1.903543E-02  5.000000E-01  7.300197E-02  1.926525E-02  0.000000E+00  2.582021E-02  4.347619E-03 -1.374173E-15 -1.073412E+00  0.000000E+00
  6.374670E-02  1.755924E-02  5.000000E-01  6.439209E-02  1.777415E-02  0.000000E+00  2.595006E-02  4.629742E-03 -2.363722E-15 -1.083282E+00  0.000000E+00
  5.579720E-02  1.609954E-02  5.000000E-01  5.636231E-02  1.629971E-02  0.000000E+00  2.605349E-02  4.922214E-03 -4.070822E-15 -1.096083E+00  0.000000E+00
  4.841260E-02  1.466494E-02  5.000000E-01  4.890313E-02  1.485062E-02  0.000000E+00  2.612865E-02  5.219829E-03 -6.958506E-15 -1.112798E+00  0.000000E+00
  4.158390E-02  1.326330E-02  5.000000E-01  4.200547E-02  1.343483E-02  0.000000E+00  2.618077E-02  5.529102E-03 -1.163969E-14 -1.133818E+00  0.000000E+00
  3.530370E-02  1.189954E-02  5.000000E-01  3.566185E-02  1.205729E-02  0.000000E+00  2.619101E-02  5.844793E-03 -1.871014E-14 -1.159979E+00  0.000000E+00
  2.956270E-02  1.058319E-02  5.000000E-01  2.986287E-02  1.072765E-02  0.000000E+00  2.613242E-02  6.162183E-03 -2.831483E-14 -1.191944E+00  0.000000E+00
  2.435310E-02  9.320845E-03  5.000000E-01  2.460066E-02  9.452555E-03  0.000000E+00  2.596539E-02  6.493295E-03 -3.937859E-14 -1.229127E+00  0.000000E+00
  1.967110E-02  8.113023E-03  5.000000E-01  1.987137E-02  8.232535E-03  0.000000E+00  2.555598E-02  6.808903E-03 -4.891158E-14 -1.271839E+00  0.000000E+00
  1.550860E-02  6.966930E-03  5.000000E-01  1.566684E-02  7.074868E-03  0.000000E+00  2.472669E-02  7.060675E-03 -5.257963E-14 -1.320391E+00  0.000000E+00
  1.185930E-02  5.886275E-03  5.000000E-01  1.198068E-02  5.983299E-03  0.000000E+00  2.337904E-02  7.241249E-03 -4.707197E-14 -1.372938E+00  0.000000E+00
  8.724160E-03  4.867308E-03  5.000000E-01  8.813883E-03  4.954042E-03  0.000000E+00  2.163564E-02  7.377299E-03 -3.295869E-14 -1.429038E+00  0.000000E+00
  6.091130E-03  3.918280E-03  5.000000E-01  6.154263E-03  3.995430E-03  0.000000E+00  2.037853E-02  7.856315E-03 -1.632672E-14 -1.484118E+00  0.000000E+00
  3.952840E-03  3.041985E-03  5.000000E-01  3.994378E-03  3.110285E-03  0.000000E+00  2.117404E-02  9.767839E-03 -5.808531E-15 -1.521240E+00  0.000000E+00
  2.330070E-03  2.225745E-03  5.000000E-01  2.355220E-03  2.285802E-03  0.000000E+00  2.424885E-02  1.422124E-02 -5.264598E-15 -1.528883E+00  0.000000E+00
  1.198080E-03  1.487734E-03  5.000000E-01  1.211798E-03  1.540338E-03  0.000000E+00  2.757865E-02  2.139878E-02 -1.155428E-14 -1.516996E+00  0.000000E+00
  5.019560E-04  8.610325E-04  5.000000E-01  5.086442E-04  9.073076E-04  0.000000E+00  3.035857E-02  3.346942E-02 -2.011495E-14 -1.528636E+00  0.000000E+00
  1.313430E-04  3.774993E-04  5.000000E-01  1.342884E-04  4.188912E-04  0.000000E+00  3.497716E-02  7.021424E-02 -2.911613E-14 -1.564491E+00  0.000000E+00
  8.078190E-06  6.922991E-05  5.000000E-01  9.778777E-06  1.075087E-04  0.000000E+00  3.046870E-02  1.730862E-01 -4.036704E-14 -1.484216E+00  0.000000E+00
 -1.602820E-06 -3.720388E-05  5.000000E-01  0.000000E+00  0.000000E+00  0.000000E+00 -4.966173E-03  2.520767E-01 -5.175144E-14 -1.190693E+00  0.000000E+00
  9.141860E-06 -1.472355E-04  5.000000E-01  1.085319E-05 -1.111429E-04  0.000000E+00 -4.978028E-02  1.968078E-01 -6.276970E-14 -4.681526E-01  0.000000E+00