 Title = "ADflow Slice Data"
Variables =  "CoordinateX"  "CoordinateY"  "CoordinateZ"  "XoC"  "YoC"  "ZoC" "VelocityX" "VelocityY" "VelocityZ" "CoefPressure" "Mach" 
Zone T= "Slice_0001 None Absolute Regular z = 0.50000000"
 Nodes =          192  Elements=          184  ZONETYPE=FELINESEG
 DATAPACKING=POINT
  5.667600E-01 -1.512090E-02  5.000000E-01  5.724853E-01 -1.523486E-02  0.000000E+00  1.341179E-02  1.530186E-03  3.522422E-17  9.988867E-02  0.000000E+00
  5.873410E-01 -1.275927E-02  5.000000E-01  5.932741E-01 -1.284938E-02  0.000000E+00  1.290508E-02  1.479757E-03  5.295670E-18  1.228753E-01  0.000000E+00
  6.076580E-01 -1.043151E-02  5.000000E-01  6.137963E-01 -1.049811E-02  0.000000E+00  1.246007E-02  1.418384E-03  8.252414E-18  1.448331E-01  0.000000E+00
  6.276600E-01 -8.170146E-03  5.000000E-01  6.340003E-01 -8.213913E-03  0.000000E+00  1.207471E-02  1.350284E-03  1.154042E-17  1.651650E-01  0.000000E+00
  6.472970E-01 -5.999655E-03  5.000000E-01  6.538356E-01 -6.021502E-03  0.000000E+00  1.173965E-02  1.280412E-03  1.707431E-17  1.835065E-01  0.000000E+00
  6.665260E-01 -3.931902E-03  5.000000E-01  6.732588E-01 -3.932868E-03  0.000000E+00  1.144465E-02  1.211311E-03  2.579100E-17  2.000646E-01  0.000000E+00
  6.853050E-01 -1.976560E-03  5.000000E-01  6.922274E-01 -1.957778E-03  0.000000E+00  1.118359E-02  1.140457E-03  3.219954E-17  2.156325E-01  0.000000E+00
  7.035980E-01 -1.507686E-04  5.000000E-01  7.107052E-01 -1.135485E-04  0.000000E+00  1.094634E-02  1.065235E-03  3.443185E-17  2.305525E-01  0.000000E+00
  7.213750E-01  1.533607E-03  5.000000E-01  7.286617E-01  1.587837E-03  0.000000E+00  1.071014E-02  9.860443E-04  3.875746E-17  2.444942E-01  0.000000E+00
  7.386080E-01  3.072359E-03  5.000000E-01  7.460687E-01  3.142130E-03  0.000000E+00  1.044595E-02  9.049912E-04  4.544970E-17  2.573852E-01  0.000000E+00
  7.552750E-01  4.470642E-03  5.000000E-01  7.629040E-01  4.554533E-03  0.000000E+00  1.013565E-02  8.263055E-04  4.839715E-17  2.696566E-01  0.000000E+00
  7.713580E-01  5.741326E-03  5.000000E-01  7.791495E-01  5.838050E-03  0.000000E+00  9.792000E-03  7.517878E-04  4.647241E-17  2.818672E-01  0.000000E+00
  7.868410E-01  6.895408E-03  5.000000E-01  7.947888E-01  7.003787E-03  0.000000E+00  9.481959E-03  6.641119E-04  4.369146E-17  2.957409E-01  0.000000E+00
  8.017160E-01  7.872922E-03  5.000000E-01  8.098140E-01  7.991173E-03  0.000000E+00  9.306673E-03  5.403888E-04  4.683324E-17  3.116169E-01  0.000000E+00
  8.159740E-01  8.590492E-03  5.000000E-01  8.242160E-01  8.715989E-03  0.000000E+00  9.329797E-03  3.860606E-04  5.295871E-17  3.245281E-01  0.000000E+00
  8.296120E-01  9.030466E-03  5.000000E-01  8.379918E-01  9.160406E-03  0.000000E+00  9.555125E-03  2.187781E-04  5.537249E-17  3.296070E-01  0.000000E+00
  8.426300E-01  9.209096E-03  5.000000E-01  8.511412E-01  9.340840E-03  0.000000E+00  9.959247E-03  4.535404E-05  5.341677E-17  3.267965E-01  0.000000E+00
  8.550290E-01  9.157744E-03  5.000000E-01  8.636654E-01  9.288969E-03  0.000000E+00  1.051390E-02 -1.332163E-04  4.855047E-17  3.180816E-01  0.000000E+00
  8.668160E-01  8.914131E-03  5.000000E-01  8.755715E-01  9.042896E-03  0.000000E+00  1.119014E-02 -3.157907E-04  4.296513E-17  3.048118E-01  0.000000E+00
  8.779950E-01  8.519515E-03  5.000000E-01  8.868634E-01  8.644295E-03  0.000000E+00  1.195813E-02 -4.998131E-04  3.772123E-17  2.875475E-01  0.000000E+00
  8.885730E-01  8.013164E-03  5.000000E-01  8.975482E-01  8.132830E-03  0.000000E+00  1.278857E-02 -6.827069E-04  3.299788E-17  2.668772E-01  0.000000E+00
  8.985610E-01  7.428445E-03  5.000000E-01  9.076371E-01  7.542207E-03  0.000000E+00  1.364888E-02 -8.577232E-04  2.763955E-17  2.433222E-01  0.000000E+00
  9.079670E-01  6.799131E-03  5.000000E-01  9.171381E-01  6.906537E-03  0.000000E+00  1.449976E-02 -1.012493E-03  2.730320E-17  2.173445E-01  0.000000E+00
  9.168010E-01  6.157726E-03  5.000000E-01  9.260613E-01  6.258654E-03  0.000000E+00  1.530360E-02 -1.137871E-03  1.362674E-17  1.900018E-01  0.000000E+00
  9.168010E-01  6.157726E-03  5.000000E-01  9.260613E-01  6.258654E-03  0.000000E+00  1.530360E-02 -1.137871E-03  1.362674E-17  1.900018E-01  0.000000E+00
  9.250730E-01  5.529033E-03  5.000000E-01  9.344168E-01  5.623613E-03  0.000000E+00  1.603721E-02 -1.235090E-03  6.208736E-18  1.628186E-01  0.000000E+00
  9.327940E-01  4.927293E-03  5.000000E-01  9.422158E-01  5.015796E-03  0.000000E+00  1.670009E-02 -1.315850E-03  1.615002E-17  1.371084E-01  0.000000E+00
  9.399760E-01  4.355781E-03  5.000000E-01  9.494703E-01  4.438512E-03  0.000000E+00  1.730846E-02 -1.391691E-03  1.892360E-17  1.131400E-01  0.000000E+00
  9.466320E-01  3.815200E-03  5.000000E-01  9.561935E-01  3.892472E-03  0.000000E+00  1.788249E-02 -1.467142E-03  2.506290E-17  9.017575E-02  0.000000E+00
  9.527730E-01  3.306371E-03  5.000000E-01  9.623965E-01  3.378504E-03  0.000000E+00  1.844685E-02 -1.548698E-03  3.282224E-17  6.767613E-02  0.000000E+00
  9.584110E-01  2.827154E-03  5.000000E-01  9.680915E-01  2.894448E-03  0.000000E+00  1.903425E-02 -1.647007E-03  2.731342E-17  4.540878E-02  0.000000E+00
  9.635570E-01  2.374318E-03  5.000000E-01  9.732895E-01  2.437039E-03  0.000000E+00  1.967859E-02 -1.767950E-03 -2.587000E-17  2.265602E-02  0.000000E+00
  9.682220E-01  1.946793E-03  5.000000E-01  9.780016E-01  2.005196E-03  0.000000E+00  2.041201E-02 -1.912161E-03 -1.581272E-16 -1.670778E-03  0.000000E+00
  9.724140E-01  1.545859E-03  5.000000E-01  9.822359E-01  1.600213E-03  0.000000E+00  2.128251E-02 -2.087647E-03 -3.245754E-16 -2.820225E-02  0.000000E+00
  9.761430E-01  1.171440E-03  5.000000E-01  9.860026E-01  1.222013E-03  0.000000E+00  2.237224E-02 -2.311570E-03 -3.907328E-16 -5.739070E-02  0.000000E+00
  9.794160E-01  8.242704E-04  5.000000E-01  9.893086E-01  8.713373E-04  0.000000E+00  2.378321E-02 -2.597352E-03 -4.258861E-16 -9.031737E-02  0.000000E+00
  9.822400E-01  5.074293E-04  5.000000E-01  9.921611E-01  5.512965E-04  0.000000E+00  2.556633E-02 -2.947187E-03 -1.290133E-15 -1.284356E-01  0.000000E+00
  9.846200E-01  2.260650E-04  5.000000E-01  9.945652E-01  2.670907E-04  0.000000E+00  2.759058E-02 -3.347859E-03 -4.600187E-15 -1.720944E-01  0.000000E+00
  9.865620E-01 -1.453607E-05  5.000000E-01  9.965268E-01  2.405984E-05  0.000000E+00  2.940959E-02 -3.711579E-03 -1.080676E-14 -2.194031E-01  0.000000E+00
  9.880680E-01 -2.086060E-04  5.000000E-01  9.980480E-01 -1.719700E-04  0.000000E+00  2.987557E-02 -3.826696E-03 -1.430483E-14 -2.766121E-01  0.000000E+00
  9.891420E-01 -3.514239E-04  5.000000E-01  9.991328E-01 -3.162302E-04  0.000000E+00  2.812836E-02 -3.911130E-03  1.110938E-14 -3.434965E-01  0.000000E+00
  9.897860E-01 -4.389487E-04  5.000000E-01  9.997833E-01 -4.046389E-04  0.000000E+00  3.788606E-02 -4.013263E-03  7.768933E-14 -2.893912E-01  0.000000E+00
  9.900000E-01 -4.683023E-04  5.000000E-01  9.999995E-01 -4.342889E-04  0.000000E+00  2.618838E-02  5.267618E-03  1.021991E-13 -5.820153E-01  0.000000E+00
  9.900000E-01 -1.843754E-04  5.000000E-01  9.999995E-01 -1.474947E-04  0.000000E+00  1.229771E-03 -7.885236E-03  9.811332E-14 -8.088085E-01  0.000000E+00
  9.900000E-01  9.955150E-05  5.000000E-01  9.999995E-01  1.392996E-04  0.000000E+00 -4.468909E-04 -2.274865E-02  8.840335E-14 -6.283583E-01  0.000000E+00
  9.900000E-01  3.834784E-04  5.000000E-01  9.999995E-01  4.260938E-04  0.000000E+00 -1.435994E-04 -8.862964E-03  4.429628E-14 -6.283144E-01  0.000000E+00
  9.900000E-01  6.674053E-04  5.000000E-01  9.999995E-01  7.128880E-04  0.000000E+00  4.646606E-04 -5.229927E-03  1.730170E-14 -6.881951E-01  0.000000E+00
  9.900000E-01  9.513321E-04  5.000000E-01  9.999995E-01  9.996822E-04  0.000000E+00  6.797365E-03 -6.632435E-03 -1.407804E-14 -6.299438E-01  0.000000E+00
  9.900000E-01  9.513321E-04  5.000000E-01  9.999995E-01  9.996822E-04  0.000000E+00  6.797365E-03 -6.632435E-03 -1.407804E-14 -6.299438E-01  0.000000E+00
  9.897890E-01  1.017904E-03  5.000000E-01  9.997864E-01  1.066926E-03  0.000000E+00  9.015805E-03 -3.469599E-03 -2.441702E-14 -5.523833E-01  0.000000E+00
  9.891540E-01  1.218674E-03  5.000000E-01  9.991450E-01  1.269724E-03  0.000000E+00  4.567802E-03 -1.351287E-03 -3.217657E-15 -5.709857E-01  0.000000E+00
  9.880950E-01  1.555408E-03  5.000000E-01  9.980753E-01  1.609858E-03  0.000000E+00  3.024815E-03 -9.609318E-04  2.198574E-15 -5.705457E-01  0.000000E+00
  9.866100E-01  2.031333E-03  5.000000E-01  9.965753E-01  2.090590E-03  0.000000E+00  1.983775E-03 -6.497854E-04  1.301173E-15 -5.626459E-01  0.000000E+00
  9.846960E-01  2.650662E-03  5.000000E-01  9.946419E-01  2.716174E-03  0.000000E+00  9.959164E-04 -3.234658E-04  3.574174E-16 -5.590080E-01  0.000000E+00
  9.823490E-01  3.418251E-03  5.000000E-01  9.922712E-01  3.491515E-03  0.000000E+00  1.849863E-04 -5.918598E-05  1.426721E-16 -5.580286E-01  0.000000E+00
  9.795670E-01  4.338749E-03  5.000000E-01  9.894611E-01  4.421308E-03  0.000000E+00 -4.278339E-04  1.427329E-04  6.854498E-17 -5.582705E-01  0.000000E+00
  9.763420E-01  5.417935E-03  5.000000E-01  9.862036E-01  5.511392E-03  0.000000E+00 -8.716068E-04  2.932895E-04  1.637066E-17 -5.597152E-01  0.000000E+00
  9.726710E-01  6.659543E-03  5.000000E-01  9.824955E-01  6.765540E-03  0.000000E+00 -1.170640E-03  3.977080E-04 -1.164607E-17 -5.622490E-01  0.000000E+00
  9.685460E-01  8.066753E-03  5.000000E-01  9.783288E-01  8.186961E-03  0.000000E+00 -1.342217E-03  4.594719E-04 -1.732700E-17 -5.654523E-01  0.000000E+00
  9.639600E-01  9.641707E-03  5.000000E-01  9.736965E-01  9.777820E-03  0.000000E+00 -1.402973E-03  4.831469E-04 -1.289573E-17 -5.688174E-01  0.000000E+00
  9.589060E-01  1.138655E-02  5.000000E-01  9.685915E-01  1.154029E-02  0.000000E+00 -1.373323E-03  4.750038E-04 -7.188927E-18 -5.718684E-01  0.000000E+00
  9.533750E-01  1.330247E-02  5.000000E-01  9.630046E-01  1.347555E-02  0.000000E+00 -1.279132E-03  4.433701E-04 -3.346743E-18 -5.742414E-01  0.000000E+00
  9.473580E-01  1.538821E-02  5.000000E-01  9.569269E-01  1.558236E-02  0.000000E+00 -1.150232E-03  3.983963E-04 -2.203400E-18 -5.757515E-01  0.000000E+00
  9.408450E-01  1.764045E-02  5.000000E-01  9.503481E-01  1.785734E-02  0.000000E+00 -1.016835E-03  3.507808E-04 -1.770930E-18 -5.764281E-01  0.000000E+00
  9.338260E-01  2.005389E-02  5.000000E-01  9.432582E-01  2.029516E-02  0.000000E+00 -9.056403E-04  3.100187E-04 -1.017273E-18 -5.764995E-01  0.000000E+00
  9.262910E-01  2.262009E-02  5.000000E-01  9.356471E-01  2.288727E-02  0.000000E+00 -8.372255E-04  2.831388E-04 -1.039992E-19 -5.763183E-01  0.000000E+00
  9.182290E-01  2.532623E-02  5.000000E-01  9.275037E-01  2.562074E-02  0.000000E+00 -8.254978E-04  2.742234E-04  3.380569E-18 -5.762552E-01  0.000000E+00
  9.096280E-01  2.815459E-02  5.000000E-01  9.188158E-01  2.847766E-02  0.000000E+00 -8.781413E-04  2.845133E-04  7.073837E-18 -5.766707E-01  0.000000E+00
  9.004770E-01  3.108169E-02  5.000000E-01  9.095724E-01  3.143432E-02  0.000000E+00 -9.969820E-04  3.126294E-04  1.257406E-17 -5.778799E-01  0.000000E+00
  8.907650E-01  3.407660E-02  5.000000E-01  8.997623E-01  3.445948E-02  0.000000E+00 -1.179228E-03  3.542510E-04  1.622498E-17 -5.799679E-01  0.000000E+00
  8.804800E-01  3.709793E-02  5.000000E-01  8.893735E-01  3.751132E-02  0.000000E+00 -1.418037E-03  4.017115E-04  1.321284E-17 -5.828353E-01  0.000000E+00
  8.696090E-01  4.008991E-02  5.000000E-01  8.783927E-01  4.053352E-02  0.000000E+00 -1.699122E-03  4.455717E-04 -5.101822E-18 -5.864169E-01  0.000000E+00
  8.696090E-01  4.008991E-02  5.000000E-01  8.783927E-01  4.053352E-02  0.000000E+00 -1.699122E-03  4.455717E-04 -5.101822E-18 -5.864169E-01  0.000000E+00
  8.581400E-01  4.298047E-02  5.000000E-01  8.668079E-01  4.345327E-02  0.000000E+00 -2.002446E-03  4.769061E-04 -3.927591E-17 -5.897236E-01  0.000000E+00
  8.460600E-01  4.568543E-02  5.000000E-01  8.546059E-01  4.618554E-02  0.000000E+00 -2.310240E-03  4.855574E-04 -8.419573E-17 -5.905546E-01  0.000000E+00
  8.333640E-01  4.812492E-02  5.000000E-01  8.417817E-01  4.864967E-02  0.000000E+00 -2.567448E-03  4.509428E-04 -1.553941E-16 -5.921079E-01  0.000000E+00
  8.200460E-01  5.022336E-02  5.000000E-01  8.283292E-01  5.076930E-02  0.000000E+00 -2.540700E-03  3.448747E-04 -2.649738E-16 -6.136441E-01  0.000000E+00
  8.061050E-01  5.191333E-02  5.000000E-01  8.142474E-01  5.247634E-02  0.000000E+00 -1.648287E-03  1.621413E-04 -3.980635E-16 -6.844029E-01  0.000000E+00
  7.915460E-01  5.316907E-02  5.000000E-01  7.995413E-01  5.374476E-02  0.000000E+00  9.923685E-04 -5.250160E-05 -5.399114E-16 -8.104014E-01  0.000000E+00
  7.763770E-01  5.402981E-02  5.000000E-01  7.842191E-01  5.461419E-02  0.000000E+00  5.991204E-03 -2.164804E-04 -6.406136E-16 -9.517187E-01  0.000000E+00
  7.606070E-01  5.456484E-02  5.000000E-01  7.682899E-01  5.515463E-02  0.000000E+00  1.260953E-02 -2.326997E-04 -6.332264E-16 -1.050194E+00  0.000000E+00
  7.442510E-01  5.478150E-02  5.000000E-01  7.517687E-01  5.537347E-02  0.000000E+00  1.845455E-02 -4.495823E-05 -5.480950E-16 -1.081602E+00  0.000000E+00
  7.273250E-01  5.469763E-02  5.000000E-01  7.346718E-01  5.528876E-02  0.000000E+00  2.145708E-02  2.562085E-04 -4.332051E-16 -1.067292E+00  0.000000E+00
  7.098490E-01  5.436572E-02  5.000000E-01  7.170193E-01  5.495349E-02  0.000000E+00  2.167887E-02  4.875487E-04 -3.137404E-16 -1.042298E+00  0.000000E+00
  6.918480E-01  5.388183E-02  5.000000E-01  6.988365E-01  5.446472E-02  0.000000E+00  2.053744E-02  5.378187E-04 -2.319548E-16 -1.031198E+00  0.000000E+00
  6.733520E-01  5.339611E-02  5.000000E-01  6.801537E-01  5.397409E-02  0.000000E+00  1.933103E-02  3.966246E-04 -2.043331E-16 -1.044708E+00  0.000000E+00
  6.543930E-01  5.310811E-02  5.000000E-01  6.610032E-01  5.368318E-02  0.000000E+00  1.875465E-02  1.294283E-04 -2.014529E-16 -1.079364E+00  0.000000E+00
  6.350090E-01  5.313747E-02  5.000000E-01  6.414235E-01  5.371284E-02  0.000000E+00  1.903439E-02 -1.468074E-04 -1.905379E-16 -1.119807E+00  0.000000E+00
  6.152440E-01  5.341693E-02  5.000000E-01  6.214589E-01  5.399513E-02  0.000000E+00  1.996347E-02 -3.486330E-04 -1.626004E-16 -1.151524E+00  0.000000E+00
  5.951420E-01  5.383647E-02  5.000000E-01  6.011539E-01  5.441890E-02  0.000000E+00  2.108737E-02 -4.395324E-04 -1.201158E-16 -1.167553E+00  0.000000E+00
  5.747530E-01  5.426568E-02  5.000000E-01  5.805590E-01  5.485245E-02  0.000000E+00  2.203833E-02 -3.839976E-04 -7.180245E-17 -1.165433E+00  0.000000E+00
  5.541290E-01  5.455981E-02  5.000000E-01  5.597267E-01  5.514955E-02  0.000000E+00  2.264730E-02 -1.704752E-04 -3.156273E-17 -1.146601E+00  0.000000E+00
  5.333260E-01  5.458123E-02  5.000000E-01  5.387136E-01  5.517118E-02  0.000000E+00  2.285307E-02  1.287718E-04 -1.224024E-17 -1.118458E+00  0.000000E+00
  5.124010E-01  5.431925E-02  5.000000E-01  5.175773E-01  5.490656E-02  0.000000E+00  2.270614E-02  4.073146E-04 -1.416631E-17 -1.090540E+00  0.000000E+00
  4.914140E-01  5.382398E-02  5.000000E-01  4.963783E-01  5.440629E-02  0.000000E+00  2.239010E-02  6.211489E-04 -2.645096E-17 -1.068257E+00  0.000000E+00
  4.704230E-01  5.315127E-02  5.000000E-01  4.751754E-01  5.372678E-02  0.000000E+00  2.208375E-02  7.684197E-04  3.451933E-17 -1.053655E+00  0.000000E+00
  1.696960E-04 -4.810013E-04  5.000000E-01  1.730287E-04 -4.471162E-04  0.000000E+00 -6.436949E-02  9.282100E-02 -9.100100E-14  5.409110E-01  0.000000E+00
  8.054360E-04 -9.781859E-04  5.000000E-01  8.151890E-04 -9.493217E-04  0.000000E+00 -4.693413E-02  3.286234E-02 -5.538832E-15  1.106832E+00  0.000000E+00
  1.973980E-03 -1.585099E-03  5.000000E-01  1.995534E-03 -1.562364E-03  0.000000E+00 -2.105153E-02  1.047952E-02 -1.534254E-14  1.176614E+00  0.000000E+00
  3.614630E-03 -2.299724E-03  5.000000E-01  3.652753E-03 -2.284206E-03  0.000000E+00 -4.055475E-03  1.772910E-03 -3.592856E-15  1.152925E+00  0.000000E+00
  5.721210E-03 -3.130488E-03  5.000000E-01  5.780607E-03 -3.123360E-03  0.000000E+00  5.020189E-03 -1.863732E-03  3.590588E-15  1.122580E+00  0.000000E+00
  8.297500E-03 -4.074913E-03  5.000000E-01  8.382914E-03 -4.077322E-03  0.000000E+00  9.329702E-03 -3.267916E-03  3.972254E-15  1.078245E+00  0.000000E+00
  1.136560E-02 -5.113390E-03  5.000000E-01  1.148200E-02 -5.126287E-03  0.000000E+00  1.109805E-02 -3.619094E-03  2.290873E-15  1.023816E+00  0.000000E+00
  1.493280E-02 -6.234675E-03  5.000000E-01  1.508522E-02 -6.258895E-03  0.000000E+00  1.169359E-02 -3.584639E-03  7.329465E-16  9.693045E-01  0.000000E+00
  1.899460E-02 -7.447076E-03  5.000000E-01  1.918804E-02 -7.483540E-03  0.000000E+00  1.195001E-02 -3.514714E-03 -1.867794E-16  9.186113E-01  0.000000E+00
  2.354800E-02 -8.766644E-03  5.000000E-01  2.378743E-02 -8.816435E-03  0.000000E+00  1.228447E-02 -3.506758E-03 -5.768422E-16  8.687297E-01  0.000000E+00
  2.860130E-02 -1.018889E-02  5.000000E-01  2.889176E-02 -1.025304E-02  0.000000E+00  1.281566E-02 -3.545761E-03 -7.022988E-16  8.170140E-01  0.000000E+00
  3.416500E-02 -1.170273E-02  5.000000E-01  3.451165E-02 -1.178217E-02  0.000000E+00  1.352512E-02 -3.613174E-03 -7.551197E-16  7.646883E-01  0.000000E+00
  4.024810E-02 -1.329897E-02  5.000000E-01  4.065618E-02 -1.339453E-02  0.000000E+00  1.435422E-02 -3.689790E-03 -8.053933E-16  7.126636E-01  0.000000E+00
  4.686030E-02 -1.496532E-02  5.000000E-01  4.733516E-02 -1.507771E-02  0.000000E+00  1.523853E-02 -3.755774E-03 -8.607869E-16  6.607239E-01  0.000000E+00
  5.401090E-02 -1.669008E-02  5.000000E-01  5.455797E-02 -1.681989E-02  0.000000E+00  1.613134E-02 -3.802731E-03 -9.185576E-16  6.089381E-01  0.000000E+00
  6.170850E-02 -1.846464E-02  5.000000E-01  6.233331E-02 -1.861237E-02  0.000000E+00  1.700702E-02 -3.822338E-03 -9.758598E-16  5.569339E-01  0.000000E+00
  6.996310E-02 -2.027467E-02  5.000000E-01  7.067127E-02 -2.044067E-02  0.000000E+00  1.785183E-02 -3.802088E-03 -1.031563E-15  5.040080E-01  0.000000E+00
  7.878500E-02 -2.210053E-02  5.000000E-01  7.958226E-02 -2.228498E-02  0.000000E+00  1.866264E-02 -3.738366E-03 -1.083327E-15  4.503578E-01  0.000000E+00
  8.818390E-02 -2.392309E-02  5.000000E-01  8.907608E-02 -2.412595E-02  0.000000E+00  1.944088E-02 -3.631261E-03 -1.120090E-15  3.964180E-01  0.000000E+00
  9.816930E-02 -2.571981E-02  5.000000E-01  9.916232E-02 -2.594081E-02  0.000000E+00  2.018110E-02 -3.476124E-03 -1.122064E-15  3.422490E-01  0.000000E+00
  1.087500E-01 -2.746381E-02  5.000000E-01  1.098499E-01 -2.770242E-02  0.000000E+00  2.086712E-02 -3.269470E-03 -1.064223E-15  2.882729E-01  0.000000E+00
  1.199340E-01 -2.912778E-02  5.000000E-01  1.211468E-01 -2.938320E-02  0.000000E+00  2.146410E-02 -3.006284E-03 -9.208454E-16  2.351938E-01  0.000000E+00
  1.317280E-01 -3.067965E-02  5.000000E-01  1.330599E-01 -3.095073E-02  0.000000E+00  2.191139E-02 -2.677731E-03 -6.710558E-16  1.838601E-01  0.000000E+00
  1.441380E-01 -3.208206E-02  5.000000E-01  1.455952E-01 -3.236731E-02  0.000000E+00  2.213782E-02 -2.283774E-03 -3.713923E-16  1.360557E-01  0.000000E+00
  1.441380E-01 -3.208206E-02  5.000000E-01  1.455952E-01 -3.236731E-02  0.000000E+00  2.213782E-02 -2.283774E-03 -3.713923E-16  1.360557E-01  0.000000E+00
  1.571670E-01 -3.329855E-02  5.000000E-01  1.587558E-01 -3.359608E-02  0.000000E+00  2.209224E-02 -1.838123E-03 -4.719914E-16  9.435772E-02  0.000000E+00
  1.708170E-01 -3.429420E-02  5.000000E-01  1.725437E-01 -3.460179E-02  0.000000E+00  2.178417E-02 -1.370478E-03 -7.457636E-16  6.149834E-02  0.000000E+00
  1.850860E-01 -3.504530E-02  5.000000E-01  1.869568E-01 -3.536048E-02  0.000000E+00  2.131745E-02 -9.337982E-04 -7.647577E-16  3.982783E-02  0.000000E+00
  1.999720E-01 -3.556046E-02  5.000000E-01  2.019931E-01 -3.588084E-02  0.000000E+00  2.087266E-02 -5.963702E-04 -7.033923E-16  3.008000E-02  0.000000E+00
  2.154670E-01 -3.590525E-02  5.000000E-01  2.176446E-01 -3.622911E-02  0.000000E+00  2.059283E-02 -3.845691E-04 -5.878521E-16  2.788572E-02  0.000000E+00
  2.315610E-01 -3.614984E-02  5.000000E-01  2.339011E-01 -3.647617E-02  0.000000E+00  2.046552E-02 -2.365195E-04 -4.728202E-16  2.316726E-02  0.000000E+00
  2.482400E-01 -3.628591E-02  5.000000E-01  2.507486E-01 -3.661362E-02  0.000000E+00  2.039621E-02 -8.598460E-05 -3.767247E-16  1.044456E-02  0.000000E+00
  2.654840E-01 -3.629146E-02  5.000000E-01  2.681667E-01 -3.661922E-02  0.000000E+00  2.031784E-02  8.201834E-05 -2.930235E-16 -7.128622E-03  0.000000E+00
  2.832720E-01 -3.614101E-02  5.000000E-01  2.861343E-01 -3.646725E-02  0.000000E+00  2.019299E-02  2.651822E-04 -2.115996E-16 -2.452375E-02  0.000000E+00
  3.015770E-01 -3.581327E-02  5.000000E-01  3.046242E-01 -3.613620E-02  0.000000E+00  2.000596E-02  4.541203E-04 -1.213681E-16 -3.833240E-02  0.000000E+00
  3.203660E-01 -3.529492E-02  5.000000E-01  3.236030E-01 -3.561262E-02  0.000000E+00  1.975479E-02  6.384605E-04 -1.686176E-17 -4.740307E-02  0.000000E+00
  3.396030E-01 -3.458068E-02  5.000000E-01  3.430342E-01 -3.489117E-02  0.000000E+00  1.944281E-02  8.116518E-04  8.976891E-17 -5.207748E-02  0.000000E+00
  3.592490E-01 -3.366854E-02  5.000000E-01  3.628786E-01 -3.396981E-02  0.000000E+00  1.907297E-02  9.716647E-04  1.925748E-16 -5.312807E-02  0.000000E+00
  3.792580E-01 -3.255730E-02  5.000000E-01  3.830897E-01 -3.284735E-02  0.000000E+00  1.864820E-02  1.117238E-03  2.826221E-16 -5.093907E-02  0.000000E+00
  3.995810E-01 -3.124874E-02  5.000000E-01  4.036179E-01 -3.152557E-02  0.000000E+00  1.817245E-02  1.245995E-03  3.448138E-16 -4.542686E-02  0.000000E+00
  4.201670E-01 -2.974883E-02  5.000000E-01  4.244118E-01 -3.001052E-02  0.000000E+00  1.764860E-02  1.356243E-03  3.722444E-16 -3.650121E-02  0.000000E+00
  4.409600E-01 -2.806556E-02  5.000000E-01  4.454148E-01 -2.831025E-02  0.000000E+00  1.707906E-02  1.447424E-03  3.591659E-16 -2.427840E-02  0.000000E+00
  4.619030E-01 -2.620844E-02  5.000000E-01  4.665693E-01 -2.643437E-02  0.000000E+00  1.647154E-02  1.517612E-03  3.151114E-16 -8.847882E-03  0.000000E+00
  4.829360E-01 -2.419481E-02  5.000000E-01  4.878147E-01 -2.440041E-02  0.000000E+00  1.584038E-02  1.564281E-03  2.584848E-16  9.610135E-03  0.000000E+00
  5.039990E-01 -2.204854E-02  5.000000E-01  5.090904E-01 -2.223246E-02  0.000000E+00  1.520267E-02  1.586664E-03  1.985332E-16  3.055612E-02  0.000000E+00
  5.250310E-01 -1.979935E-02  5.000000E-01  5.303348E-01 -1.996056E-02  0.000000E+00  1.457530E-02  1.586174E-03  1.411957E-16  5.316560E-02  0.000000E+00
  5.459710E-01 -1.747970E-02  5.000000E-01  5.514863E-01 -1.761748E-02  0.000000E+00  1.397324E-02  1.566373E-03  9.039757E-17  7.649571E-02  0.000000E+00
  5.667600E-01 -1.512090E-02  5.000000E-01  5.724853E-01 -1.523486E-02  0.000000E+00  1.341179E-02  1.530186E-03  3.522422E-17  9.988867E-02  0.000000E+00
  4.704230E-01  5.315127E-02  5.000000E-01  4.751754E-01  5.372678E-02  0.000000E+00  2.208375E-02  7.684197E-04  3.451933E-17 -1.053655E+00  0.000000E+00
  4.494880E-01  5.236177E-02  5.000000E-01  4.540289E-01  5.292931E-02  0.000000E+00  2.188900E-02  8.562984E-04  1.242310E-16 -1.046913E+00  0.000000E+00
  4.286690E-01  5.151603E-02  5.000000E-01  4.329997E-01  5.207503E-02  0.000000E+00  2.185881E-02  9.112382E-04  1.659441E-16 -1.045625E+00  0.000000E+00
  4.080230E-01  5.063482E-02  5.000000E-01  4.121452E-01  5.118492E-02  0.000000E+00  2.200105E-02  9.725933E-04  1.999222E-16 -1.045760E+00  0.000000E+00
  3.876050E-01  4.970326E-02  5.000000E-01  3.915210E-01  5.024394E-02  0.000000E+00  2.225396E-02  1.058233E-03  2.180767E-16 -1.044707E+00  0.000000E+00
  3.674690E-01  4.870800E-02  5.000000E-01  3.711816E-01  4.923864E-02  0.000000E+00  2.252948E-02  1.165189E-03  2.128818E-16 -1.041794E+00  0.000000E+00
  3.476650E-01  4.763906E-02  5.000000E-01  3.511776E-01  4.815890E-02  0.000000E+00  2.277204E-02  1.289147E-03  1.820727E-16 -1.037079E+00  0.000000E+00
  3.282390E-01  4.648878E-02  5.000000E-01  3.315555E-01  4.699700E-02  0.000000E+00  2.296496E-02  1.427301E-03  1.279979E-16 -1.030913E+00  0.000000E+00
  3.092330E-01  4.525198E-02  5.000000E-01  3.123575E-01  4.574771E-02  0.000000E+00  2.311072E-02  1.574492E-03  5.772348E-17 -1.023939E+00  0.000000E+00
  2.906860E-01  4.393163E-02  5.000000E-01  2.936232E-01  4.441403E-02  0.000000E+00  2.321899E-02  1.725609E-03 -2.252933E-17 -1.016786E+00  0.000000E+00
  2.726330E-01  4.253336E-02  5.000000E-01  2.753879E-01  4.300164E-02  0.000000E+00  2.330213E-02  1.879813E-03 -1.067259E-16 -1.009717E+00  0.000000E+00
  2.551020E-01  4.106266E-02  5.000000E-01  2.576799E-01  4.151609E-02  0.000000E+00  2.336853E-02  2.038208E-03 -1.831446E-16 -1.002732E+00  0.000000E+00
  2.381210E-01  3.952547E-02  5.000000E-01  2.405274E-01  3.996337E-02  0.000000E+00  2.342410E-02  2.204199E-03 -2.464972E-16 -9.956818E-01  0.000000E+00
  2.217090E-01  3.792397E-02  5.000000E-01  2.239496E-01  3.834571E-02  0.000000E+00  2.346860E-02  2.379009E-03 -2.961418E-16 -9.888712E-01  0.000000E+00
  2.058840E-01  3.626069E-02  5.000000E-01  2.079648E-01  3.666563E-02  0.000000E+00  2.348227E-02  2.541396E-03 -3.295590E-16 -9.845105E-01  0.000000E+00
  1.906600E-01  3.456321E-02  5.000000E-01  1.925871E-01  3.495100E-02  0.000000E+00  2.345748E-02  2.655121E-03 -3.509818E-16 -9.859911E-01  0.000000E+00
  1.760460E-01  3.288190E-02  5.000000E-01  1.778255E-01  3.325271E-02  0.000000E+00  2.346114E-02  2.724891E-03 -3.652738E-16 -9.938307E-01  0.000000E+00
  1.620500E-01  3.124089E-02  5.000000E-01  1.636881E-01  3.159513E-02  0.000000E+00  2.358455E-02  2.792803E-03 -3.660147E-16 -1.005274E+00  0.000000E+00
  1.486750E-01  2.964236E-02  5.000000E-01  1.501781E-01  2.998045E-02  0.000000E+00  2.384855E-02  2.888493E-03 -3.392487E-16 -1.017408E+00  0.000000E+00
  1.359210E-01  2.807812E-02  5.000000E-01  1.372953E-01  2.840042E-02  0.000000E+00  2.420295E-02  3.019856E-03 -2.752274E-16 -1.028485E+00  0.000000E+00
  1.237890E-01  2.653937E-02  5.000000E-01  1.250407E-01  2.684614E-02  0.000000E+00  2.457726E-02  3.184273E-03 -1.784848E-16 -1.037862E+00  0.000000E+00
  1.122730E-01  2.501660E-02  5.000000E-01  1.134084E-01  2.530798E-02  0.000000E+00  2.492007E-02  3.376584E-03 -8.556826E-17 -1.045638E+00  0.000000E+00
  1.013710E-01  2.350414E-02  5.000000E-01  1.023964E-01  2.378025E-02  0.000000E+00  2.520862E-02  3.590302E-03  4.846834E-17 -1.052421E+00  0.000000E+00
  9.107400E-02  2.199999E-02  5.000000E-01  9.199536E-02  2.226091E-02  0.000000E+00  2.544656E-02  3.824633E-03 -3.115619E-17 -1.058787E+00  0.000000E+00
  9.107400E-02  2.199999E-02  5.000000E-01  9.199536E-02  2.226091E-02  0.000000E+00  2.544656E-02  3.824633E-03 -3.115619E-17 -1.058787E+00  0.000000E+00
  8.137660E-02  2.050190E-02  5.000000E-01  8.220003E-02  2.074768E-02  0.000000E+00  2.564194E-02  4.077945E-03 -4.455558E-16 -1.065483E+00  0.000000E+00
  7.227050E-02  1.901228E-02  5.000000E-01  7.300197E-02  1.924303E-02  0.000000E+00  2.579918E-02  4.344309E-03 -1.102220E-15 -1.073524E+00  0.000000E+00
  6.374670E-02  1.753625E-02  5.000000E-01  6.439209E-02  1.775209E-02  0.000000E+00  2.592905E-02  4.624848E-03 -2.157920E-15 -1.083578E+00  0.000000E+00
  5.579720E-02  1.607711E-02  5.000000E-01  5.636231E-02  1.627821E-02  0.000000E+00  2.603218E-02  4.915725E-03 -3.776663E-15 -1.096554E+00  0.000000E+00
  4.841260E-02  1.464339E-02  5.000000E-01  4.890313E-02  1.483001E-02  0.000000E+00  2.610672E-02  5.211683E-03 -6.309011E-15 -1.113442E+00  0.000000E+00
  4.158390E-02  1.324291E-02  5.000000E-01  4.200547E-02  1.341539E-02  0.000000E+00  2.615784E-02  5.519173E-03 -1.024313E-14 -1.134635E+00  0.000000E+00
  3.530370E-02  1.188052E-02  5.000000E-01  3.566185E-02  1.203924E-02  0.000000E+00  2.616656E-02  5.832881E-03 -1.591339E-14 -1.160969E+00  0.000000E+00
  2.956270E-02  1.056574E-02  5.000000E-01  2.986287E-02  1.071119E-02  0.000000E+00  2.610569E-02  6.147990E-03 -2.285720E-14 -1.193111E+00  0.000000E+00
  2.435310E-02  9.305120E-03  5.000000E-01  2.460066E-02  9.437833E-03  0.000000E+00  2.593526E-02  6.476372E-03 -2.901706E-14 -1.230472E+00  0.000000E+00
  1.967110E-02  8.099133E-03  5.000000E-01  1.987137E-02  8.219668E-03  0.000000E+00  2.552076E-02  6.788635E-03 -3.085812E-14 -1.273364E+00  0.000000E+00
  1.550860E-02  6.954950E-03  5.000000E-01  1.566684E-02  7.063929E-03  0.000000E+00  2.468436E-02  7.036336E-03 -2.630873E-14 -1.322091E+00  0.000000E+00
  1.185930E-02  5.876231E-03  5.000000E-01  1.198068E-02  5.974317E-03  0.000000E+00  2.332841E-02  7.212212E-03 -2.080637E-14 -1.374806E+00  0.000000E+00
  8.724160E-03  4.859163E-03  5.000000E-01  8.813883E-03  4.946978E-03  0.000000E+00  2.157878E-02  7.343885E-03 -3.285411E-14 -1.431049E+00  0.000000E+00
  6.091130E-03  3.911940E-03  5.000000E-01  6.154263E-03  3.990189E-03  0.000000E+00  2.032374E-02  7.820684E-03 -9.518073E-14 -1.486225E+00  0.000000E+00
  3.952840E-03  3.037282E-03  5.000000E-01  3.994378E-03  3.106698E-03  0.000000E+00  2.113554E-02  9.733980E-03 -2.532828E-13 -1.523400E+00  0.000000E+00
  2.330070E-03  2.222405E-03  5.000000E-01  2.355220E-03  2.283592E-03  0.000000E+00  2.423883E-02  1.419535E-02 -5.631981E-13 -1.531088E+00  0.000000E+00
  1.198080E-03  1.485420E-03  5.000000E-01  1.211798E-03  1.539164E-03  0.000000E+00  2.759966E-02  2.139020E-02 -1.012903E-12 -1.519248E+00  0.000000E+00
  5.019560E-04  8.593887E-04  5.000000E-01  5.086442E-04  9.068103E-04  0.000000E+00  3.041175E-02  3.350388E-02 -1.239809E-12 -1.530792E+00  0.000000E+00
  1.313430E-04  3.762247E-04  5.000000E-01  1.342884E-04  4.187669E-04  0.000000E+00  3.506361E-02  7.036322E-02 -6.628904E-13 -1.566087E+00  0.000000E+00
  8.078190E-06  6.807403E-05  5.000000E-01  9.778777E-06  1.075042E-04  0.000000E+00  3.054287E-02  1.732850E-01 -1.469912E-12 -1.484756E+00  0.000000E+00
 -1.602820E-06 -3.835536E-05  5.000000E-01  0.000000E+00  0.000000E+00  0.000000E+00 -4.944370E-03  2.521462E-01 -1.960114E-12 -1.190861E+00  0.000000E+00
  9.141860E-06 -1.484063E-04  5.000000E-01  1.085319E-05 -1.111623E-04  0.000000E+00 -4.976276E-02  1.967991E-01 -6.403314E-13 -4.687315E-01  0.000000E+00