 Title = "ADflow Slice Data"
Variables =  "CoordinateX"  "CoordinateY"  "CoordinateZ"  "XoC"  "YoC"  "ZoC" "VelocityX" "VelocityY" "VelocityZ" "CoefPressure" "Mach" 
Zone T= "Slice_0001 None Absolute Regular z = 0.50000000"
 Nodes =          192  Elements=          184  ZONETYPE=FELINESEG
 DATAPACKING=POINT
  5.667600E-01 -1.510696E-02  5.000000E-01  5.724853E-01 -1.522062E-02  0.000000E+00  1.340861E-02  1.528849E-03  6.491381E-19  1.002500E-01  0.000000E+00
  5.873410E-01 -1.274733E-02  5.000000E-01  5.932741E-01 -1.283716E-02  0.000000E+00  1.290517E-02  1.478338E-03  2.727110E-19  1.231451E-01  0.000000E+00
  6.076580E-01 -1.042211E-02  5.000000E-01  6.137963E-01 -1.048846E-02  0.000000E+00  1.246314E-02  1.417115E-03 -9.416071E-20  1.449857E-01  0.000000E+00
  6.276600E-01 -8.163430E-03  5.000000E-01  6.340003E-01 -8.206968E-03  0.000000E+00  1.207998E-02  1.349300E-03  8.150696E-20  1.652065E-01  0.000000E+00
  6.472970E-01 -5.995404E-03  5.000000E-01  6.538356E-01 -6.017047E-03  0.000000E+00  1.174611E-02  1.279785E-03  4.868179E-19  1.834595E-01  0.000000E+00
  6.665260E-01 -3.929584E-03  5.000000E-01  6.732588E-01 -3.930364E-03  0.000000E+00  1.145130E-02  1.211045E-03  1.029361E-18  1.999590E-01  0.000000E+00
  6.853050E-01 -1.975514E-03  5.000000E-01  6.922274E-01 -1.956561E-03  0.000000E+00  1.118971E-02  1.140467E-03  2.178969E-18  2.155032E-01  0.000000E+00
  7.035980E-01 -1.504713E-04  5.000000E-01  7.107052E-01 -1.130872E-04  0.000000E+00  1.095154E-02  1.065400E-03  2.062233E-18  2.304279E-01  0.000000E+00
  7.213750E-01  1.533526E-03  5.000000E-01  7.286617E-01  1.587916E-03  0.000000E+00  1.071431E-02  9.862709E-04  1.117762E-18  2.443878E-01  0.000000E+00
  7.386080E-01  3.072136E-03  5.000000E-01  7.460687E-01  3.142065E-03  0.000000E+00  1.044915E-02  9.052228E-04  8.057067E-19  2.572997E-01  0.000000E+00
  7.552750E-01  4.470409E-03  5.000000E-01  7.629040E-01  4.554458E-03  0.000000E+00  1.013802E-02  8.265105E-04  1.426887E-18  2.695902E-01  0.000000E+00
  7.713580E-01  5.741138E-03  5.000000E-01  7.791495E-01  5.838021E-03  0.000000E+00  9.793731E-03  7.519514E-04  1.338458E-18  2.818170E-01  0.000000E+00
  7.868410E-01  6.895271E-03  5.000000E-01  7.947888E-01  7.003809E-03  0.000000E+00  9.483233E-03  6.642302E-04 -2.161018E-19  2.957035E-01  0.000000E+00
  8.017160E-01  7.872823E-03  5.000000E-01  8.098140E-01  7.991233E-03  0.000000E+00  9.307643E-03  5.404672E-04 -1.920286E-18  3.115881E-01  0.000000E+00
  8.159740E-01  8.590420E-03  5.000000E-01  8.242160E-01  8.716077E-03  0.000000E+00  9.330575E-03  3.861090E-04 -2.317596E-18  3.245045E-01  0.000000E+00
  8.296120E-01  9.030414E-03  5.000000E-01  8.379918E-01  9.160515E-03  0.000000E+00  9.555781E-03  2.188055E-04 -3.588566E-20  3.295863E-01  0.000000E+00
  8.426300E-01  9.209059E-03  5.000000E-01  8.511412E-01  9.340964E-03  0.000000E+00  9.959824E-03  4.536656E-05  1.224129E-18  3.267777E-01  0.000000E+00
  8.550290E-01  9.157717E-03  5.000000E-01  8.636654E-01  9.289104E-03  0.000000E+00  1.051442E-02 -1.332149E-04  9.681352E-19  3.180644E-01  0.000000E+00
  8.668160E-01  8.914112E-03  5.000000E-01  8.755715E-01  9.043038E-03  0.000000E+00  1.119062E-02 -3.157976E-04  8.144918E-19  3.047957E-01  0.000000E+00
  8.779950E-01  8.519501E-03  5.000000E-01  8.868634E-01  8.644443E-03  0.000000E+00  1.195857E-02 -4.998264E-04  9.630822E-19  2.875324E-01  0.000000E+00
  8.885730E-01  8.013154E-03  5.000000E-01  8.975482E-01  8.132982E-03  0.000000E+00  1.278899E-02 -6.827247E-04  1.079990E-18  2.668629E-01  0.000000E+00
  8.985610E-01  7.428439E-03  5.000000E-01  9.076371E-01  7.542361E-03  0.000000E+00  1.364927E-02 -8.577441E-04  1.103930E-18  2.433085E-01  0.000000E+00
  9.079670E-01  6.799126E-03  5.000000E-01  9.171381E-01  6.906693E-03  0.000000E+00  1.450012E-02 -1.012516E-03  1.608015E-18  2.173315E-01  0.000000E+00
  9.168010E-01  6.157723E-03  5.000000E-01  9.260613E-01  6.258812E-03  0.000000E+00  1.530394E-02 -1.137894E-03  2.255989E-18  1.899893E-01  0.000000E+00
  9.168010E-01  6.157723E-03  5.000000E-01  9.260613E-01  6.258812E-03  0.000000E+00  1.530394E-02 -1.137894E-03  2.255989E-18  1.899893E-01  0.000000E+00
  9.250730E-01  5.529031E-03  5.000000E-01  9.344168E-01  5.623772E-03  0.000000E+00  1.603753E-02 -1.235112E-03  3.714987E-18  1.628068E-01  0.000000E+00
  9.327940E-01  4.927292E-03  5.000000E-01  9.422158E-01  5.015955E-03  0.000000E+00  1.670037E-02 -1.315871E-03  4.442722E-18  1.370973E-01  0.000000E+00
  9.399760E-01  4.355780E-03  5.000000E-01  9.494703E-01  4.438672E-03  0.000000E+00  1.730871E-02 -1.391709E-03  5.153079E-18  1.131296E-01  0.000000E+00
  9.466320E-01  3.815199E-03  5.000000E-01  9.561935E-01  3.892632E-03  0.000000E+00  1.788270E-02 -1.467159E-03  4.210258E-18  9.016599E-02  0.000000E+00
  9.527730E-01  3.306371E-03  5.000000E-01  9.623965E-01  3.378665E-03  0.000000E+00  1.844704E-02 -1.548713E-03 -3.368303E-18  6.766699E-02  0.000000E+00
  9.584110E-01  2.827154E-03  5.000000E-01  9.680915E-01  2.894609E-03  0.000000E+00  1.903441E-02 -1.647020E-03 -1.608240E-17  4.540022E-02  0.000000E+00
  9.635570E-01  2.374318E-03  5.000000E-01  9.732895E-01  2.437200E-03  0.000000E+00  1.967872E-02 -1.767961E-03 -2.692360E-17  2.264801E-02  0.000000E+00
  9.682220E-01  1.946793E-03  5.000000E-01  9.780016E-01  2.005357E-03  0.000000E+00  2.041211E-02 -1.912170E-03 -2.673287E-17 -1.678239E-03  0.000000E+00
  9.724140E-01  1.545859E-03  5.000000E-01  9.822359E-01  1.600374E-03  0.000000E+00  2.128260E-02 -2.087655E-03 -2.383878E-17 -2.820916E-02  0.000000E+00
  9.761430E-01  1.171440E-03  5.000000E-01  9.860026E-01  1.222174E-03  0.000000E+00  2.237231E-02 -2.311576E-03 -6.421650E-17 -5.739706E-02  0.000000E+00
  9.794160E-01  8.242704E-04  5.000000E-01  9.893086E-01  8.714983E-04  0.000000E+00  2.378326E-02 -2.597357E-03 -1.731362E-16 -9.032323E-02  0.000000E+00
  9.822400E-01  5.074293E-04  5.000000E-01  9.921611E-01  5.514575E-04  0.000000E+00  2.556637E-02 -2.947192E-03 -1.889453E-16 -1.284410E-01  0.000000E+00
  9.846200E-01  2.260650E-04  5.000000E-01  9.945652E-01  2.672518E-04  0.000000E+00  2.759062E-02 -3.347863E-03  3.152183E-16 -1.720994E-01  0.000000E+00
  9.865620E-01 -1.453606E-05  5.000000E-01  9.965268E-01  2.422087E-05  0.000000E+00  2.940962E-02 -3.711583E-03  1.611156E-15 -2.194079E-01  0.000000E+00
  9.880680E-01 -2.086060E-04  5.000000E-01  9.980480E-01 -1.718089E-04  0.000000E+00  2.987560E-02 -3.826700E-03  2.600424E-15 -2.766167E-01  0.000000E+00
  9.891420E-01 -3.514239E-04  5.000000E-01  9.991328E-01 -3.160692E-04  0.000000E+00  2.812840E-02 -3.911135E-03 -6.219760E-16 -3.435010E-01  0.000000E+00
  9.897860E-01 -4.389487E-04  5.000000E-01  9.997833E-01 -4.044778E-04  0.000000E+00  3.788611E-02 -4.013267E-03 -1.246999E-14 -2.893958E-01  0.000000E+00
  9.900000E-01 -4.683023E-04  5.000000E-01  9.999995E-01 -4.341279E-04  0.000000E+00  2.618841E-02  5.267615E-03 -1.129051E-14 -5.820196E-01  0.000000E+00
  9.900000E-01 -1.843754E-04  5.000000E-01  9.999995E-01 -1.473336E-04  0.000000E+00  1.229775E-03 -7.885239E-03  1.805126E-16 -8.088125E-01  0.000000E+00
  9.900000E-01  9.955150E-05  5.000000E-01  9.999995E-01  1.394606E-04  0.000000E+00 -4.468913E-04 -2.274866E-02  3.065209E-15 -6.283627E-01  0.000000E+00
  9.900000E-01  3.834784E-04  5.000000E-01  9.999995E-01  4.262548E-04  0.000000E+00 -1.435990E-04 -8.862997E-03  4.368170E-15 -6.283186E-01  0.000000E+00
  9.900000E-01  6.674053E-04  5.000000E-01  9.999995E-01  7.130490E-04  0.000000E+00  4.646603E-04 -5.229947E-03  4.150883E-15 -6.881990E-01  0.000000E+00
  9.900000E-01  9.513321E-04  5.000000E-01  9.999995E-01  9.998432E-04  0.000000E+00  6.797341E-03 -6.632425E-03  3.471278E-15 -6.299479E-01  0.000000E+00
  9.900000E-01  9.513321E-04  5.000000E-01  9.999995E-01  9.998432E-04  0.000000E+00  6.797341E-03 -6.632425E-03  3.471278E-15 -6.299479E-01  0.000000E+00
  9.897890E-01  1.017904E-03  5.000000E-01  9.997864E-01  1.067087E-03  0.000000E+00  9.015767E-03 -3.469585E-03  2.758102E-15 -5.523878E-01  0.000000E+00
  9.891540E-01  1.218674E-03  5.000000E-01  9.991450E-01  1.269885E-03  0.000000E+00  4.567774E-03 -1.351278E-03  1.823356E-15 -5.709901E-01  0.000000E+00
  9.880950E-01  1.555408E-03  5.000000E-01  9.980753E-01  1.610019E-03  0.000000E+00  3.024786E-03 -9.609222E-04  1.041003E-15 -5.705501E-01  0.000000E+00
  9.866100E-01  2.031333E-03  5.000000E-01  9.965753E-01  2.090751E-03  0.000000E+00  1.983746E-03 -6.497759E-04  5.189361E-16 -5.626503E-01  0.000000E+00
  9.846960E-01  2.650662E-03  5.000000E-01  9.946419E-01  2.716335E-03  0.000000E+00  9.958909E-04 -3.234573E-04  2.195364E-16 -5.590126E-01  0.000000E+00
  9.823490E-01  3.418251E-03  5.000000E-01  9.922712E-01  3.491676E-03  0.000000E+00  1.849657E-04 -5.917900E-05  6.665075E-17 -5.580332E-01  0.000000E+00
  9.795670E-01  4.338749E-03  5.000000E-01  9.894611E-01  4.421469E-03  0.000000E+00 -4.278485E-04  1.427380E-04 -1.838507E-18 -5.582751E-01  0.000000E+00
  9.763420E-01  5.417935E-03  5.000000E-01  9.862036E-01  5.511553E-03  0.000000E+00 -8.716148E-04  2.932924E-04 -2.328589E-17 -5.597198E-01  0.000000E+00
  9.726710E-01  6.659543E-03  5.000000E-01  9.824955E-01  6.765701E-03  0.000000E+00 -1.170641E-03  3.977087E-04 -2.102947E-17 -5.622536E-01  0.000000E+00
  9.685460E-01  8.066753E-03  5.000000E-01  9.783288E-01  8.187122E-03  0.000000E+00 -1.342212E-03  4.594704E-04 -1.243195E-17 -5.654570E-01  0.000000E+00
  9.639600E-01  9.641707E-03  5.000000E-01  9.736965E-01  9.777981E-03  0.000000E+00 -1.402962E-03  4.831435E-04 -5.236793E-18 -5.688220E-01  0.000000E+00
  9.589060E-01  1.138655E-02  5.000000E-01  9.685915E-01  1.154045E-02  0.000000E+00 -1.373308E-03  4.749990E-04 -5.823434E-19 -5.718729E-01  0.000000E+00
  9.533750E-01  1.330247E-02  5.000000E-01  9.630046E-01  1.347571E-02  0.000000E+00 -1.279115E-03  4.433644E-04  8.541137E-19 -5.742459E-01  0.000000E+00
  9.473580E-01  1.538821E-02  5.000000E-01  9.569269E-01  1.558252E-02  0.000000E+00 -1.150214E-03  3.983903E-04  8.699739E-19 -5.757560E-01  0.000000E+00
  9.408450E-01  1.764045E-02  5.000000E-01  9.503481E-01  1.785750E-02  0.000000E+00 -1.016818E-03  3.507752E-04  1.343387E-18 -5.764325E-01  0.000000E+00
  9.338260E-01  2.005389E-02  5.000000E-01  9.432582E-01  2.029532E-02  0.000000E+00 -9.056263E-04  3.100141E-04  9.895725E-19 -5.765040E-01  0.000000E+00
  9.262910E-01  2.262009E-02  5.000000E-01  9.356471E-01  2.288743E-02  0.000000E+00 -8.372169E-04  2.831360E-04  5.791044E-19 -5.763228E-01  0.000000E+00
  9.182290E-01  2.532622E-02  5.000000E-01  9.275037E-01  2.562089E-02  0.000000E+00 -8.254965E-04  2.742230E-04  1.536768E-18 -5.762599E-01  0.000000E+00
  9.096280E-01  2.815458E-02  5.000000E-01  9.188158E-01  2.847781E-02  0.000000E+00 -8.781488E-04  2.845156E-04  1.043754E-18 -5.766755E-01  0.000000E+00
  9.004770E-01  3.108168E-02  5.000000E-01  9.095724E-01  3.143448E-02  0.000000E+00 -9.969984E-04  3.126343E-04 -2.750897E-19 -5.778848E-01  0.000000E+00
  8.907650E-01  3.407659E-02  5.000000E-01  8.997623E-01  3.445963E-02  0.000000E+00 -1.179252E-03  3.542578E-04 -2.383207E-18 -5.799728E-01  0.000000E+00
  8.804800E-01  3.709791E-02  5.000000E-01  8.893735E-01  3.751146E-02  0.000000E+00 -1.418066E-03  4.017191E-04 -2.244271E-18 -5.828401E-01  0.000000E+00
  8.696090E-01  4.008988E-02  5.000000E-01  8.783927E-01  4.053365E-02  0.000000E+00 -1.699144E-03  4.455768E-04 -3.163727E-19 -5.864215E-01  0.000000E+00
  8.696090E-01  4.008988E-02  5.000000E-01  8.783927E-01  4.053365E-02  0.000000E+00 -1.699144E-03  4.455768E-04 -3.163727E-19 -5.864215E-01  0.000000E+00
  8.581400E-01  4.298043E-02  5.000000E-01  8.668079E-01  4.345339E-02  0.000000E+00 -2.002453E-03  4.769060E-04  6.259613E-19 -5.897277E-01  0.000000E+00
  8.460600E-01  4.568537E-02  5.000000E-01  8.546059E-01  4.618564E-02  0.000000E+00 -2.310224E-03  4.855504E-04  1.504344E-18 -5.905583E-01  0.000000E+00
  8.333640E-01  4.812484E-02  5.000000E-01  8.417817E-01  4.864975E-02  0.000000E+00 -2.567388E-03  4.509255E-04 -6.522766E-19 -5.921127E-01  0.000000E+00
  8.200460E-01  5.022324E-02  5.000000E-01  8.283292E-01  5.076934E-02  0.000000E+00 -2.540550E-03  3.448459E-04 -1.719744E-18 -6.136523E-01  0.000000E+00
  8.061050E-01  5.191316E-02  5.000000E-01  8.142474E-01  5.247632E-02  0.000000E+00 -1.647988E-03  1.621071E-04  3.174066E-19 -6.844146E-01  0.000000E+00
  7.915460E-01  5.316883E-02  5.000000E-01  7.995413E-01  5.374468E-02  0.000000E+00  9.928256E-04 -5.252252E-05  2.466420E-18 -8.104113E-01  0.000000E+00
  7.763770E-01  5.402947E-02  5.000000E-01  7.842191E-01  5.461401E-02  0.000000E+00  5.991628E-03 -2.164547E-04  2.767488E-18 -9.517194E-01  0.000000E+00
  7.606070E-01  5.456438E-02  5.000000E-01  7.682899E-01  5.515432E-02  0.000000E+00  1.260950E-02 -2.326102E-04 -9.116828E-19 -1.050185E+00  0.000000E+00
  7.442510E-01  5.478091E-02  5.000000E-01  7.517687E-01  5.537304E-02  0.000000E+00  1.845376E-02 -4.485827E-05 -6.644888E-18 -1.081590E+00  0.000000E+00
  7.273250E-01  5.469697E-02  5.000000E-01  7.346718E-01  5.528825E-02  0.000000E+00  2.145568E-02  2.562026E-04 -1.044684E-17 -1.067290E+00  0.000000E+00
  7.098490E-01  5.436510E-02  5.000000E-01  7.170193E-01  5.495303E-02  0.000000E+00  2.167731E-02  4.873283E-04 -1.192638E-17 -1.042322E+00  0.000000E+00
  6.918480E-01  5.388147E-02  5.000000E-01  6.988365E-01  5.446452E-02  0.000000E+00  2.053616E-02  5.373158E-04 -1.212278E-17 -1.031264E+00  0.000000E+00
  6.733520E-01  5.339633E-02  5.000000E-01  6.801537E-01  5.397447E-02  0.000000E+00  1.933039E-02  3.957870E-04 -1.073095E-17 -1.044828E+00  0.000000E+00
  6.543930E-01  5.310934E-02  5.000000E-01  6.610032E-01  5.368459E-02  0.000000E+00  1.875502E-02  1.282286E-04 -8.781264E-18 -1.079536E+00  0.000000E+00
  6.350090E-01  5.314015E-02  5.000000E-01  6.414235E-01  5.371571E-02  0.000000E+00  1.903618E-02 -1.482989E-04 -7.355608E-18 -1.120011E+00  0.000000E+00
  6.152440E-01  5.342122E-02  5.000000E-01  6.214589E-01  5.399961E-02  0.000000E+00  1.996678E-02 -3.502131E-04 -6.384643E-18 -1.151724E+00  0.000000E+00
  5.951420E-01  5.384221E-02  5.000000E-01  6.011539E-01  5.442486E-02  0.000000E+00  2.109178E-02 -4.408611E-04 -5.787932E-18 -1.167707E+00  0.000000E+00
  5.747530E-01  5.427237E-02  5.000000E-01  5.805590E-01  5.485936E-02  0.000000E+00  2.204308E-02 -3.846179E-04 -5.501212E-18 -1.165499E+00  0.000000E+00
  5.541290E-01  5.456659E-02  5.000000E-01  5.597267E-01  5.515655E-02  0.000000E+00  2.265157E-02 -1.699528E-04 -5.363030E-18 -1.146543E+00  0.000000E+00
  5.333260E-01  5.458692E-02  5.000000E-01  5.387136E-01  5.517709E-02  0.000000E+00  2.285589E-02  1.305020E-04 -4.942700E-18 -1.118267E+00  0.000000E+00
  5.124010E-01  5.432288E-02  5.000000E-01  5.175773E-01  5.491038E-02  0.000000E+00  2.270660E-02  4.098467E-04 -5.044371E-18 -1.090247E+00  0.000000E+00
  4.914140E-01  5.382499E-02  5.000000E-01  4.963783E-01  5.440746E-02  0.000000E+00  2.238788E-02  6.239222E-04 -6.101292E-18 -1.067912E+00  0.000000E+00
  4.704230E-01  5.314956E-02  5.000000E-01  4.751754E-01  5.372521E-02  0.000000E+00  2.207916E-02  7.709267E-04 -7.544539E-18 -1.053318E+00  0.000000E+00
  1.696960E-04 -4.811925E-04  5.000000E-01  1.730287E-04 -4.471483E-04  0.000000E+00 -6.436748E-02  9.282805E-02 -7.435438E-14  5.407351E-01  0.000000E+00
  8.054360E-04 -9.784880E-04  5.000000E-01  8.151890E-04 -9.494659E-04  0.000000E+00 -4.693654E-02  3.287186E-02 -5.252299E-14  1.106720E+00  0.000000E+00
  1.973980E-03 -1.585609E-03  5.000000E-01  1.995534E-03 -1.562719E-03  0.000000E+00 -2.105688E-02  1.048586E-02 -2.482617E-14  1.176594E+00  0.000000E+00
  3.614630E-03 -2.300537E-03  5.000000E-01  3.652753E-03 -2.284866E-03  0.000000E+00 -4.061253E-03  1.776057E-03 -5.525843E-15  1.152961E+00  0.000000E+00
  5.721210E-03 -3.131704E-03  5.000000E-01  5.780607E-03 -3.124427E-03  0.000000E+00  5.014952E-03 -1.862723E-03  2.627287E-15  1.122647E+00  0.000000E+00
  8.297500E-03 -4.076637E-03  5.000000E-01  8.382914E-03 -4.078903E-03  0.000000E+00  9.325156E-03 -3.268184E-03  3.115920E-15  1.078334E+00  0.000000E+00
  1.136560E-02 -5.115739E-03  5.000000E-01  1.148200E-02 -5.128498E-03  0.000000E+00  1.109417E-02 -3.620104E-03  1.108954E-15  1.023918E+00  0.000000E+00
  1.493280E-02 -6.237763E-03  5.000000E-01  1.508522E-02 -6.261853E-03  0.000000E+00  1.169031E-02 -3.586074E-03 -3.393267E-16  9.694123E-01  0.000000E+00
  1.899460E-02 -7.451019E-03  5.000000E-01  1.918804E-02 -7.487362E-03  0.000000E+00  1.194718E-02 -3.516415E-03 -6.780343E-16  9.187173E-01  0.000000E+00
  2.354800E-02 -8.771558E-03  5.000000E-01  2.378743E-02 -8.821237E-03  0.000000E+00  1.228202E-02 -3.508686E-03 -4.402120E-16  8.688291E-01  0.000000E+00
  2.860130E-02 -1.019489E-02  5.000000E-01  2.889176E-02 -1.025894E-02  0.000000E+00  1.281359E-02 -3.547937E-03 -1.309579E-16  8.171025E-01  0.000000E+00
  3.416500E-02 -1.170992E-02  5.000000E-01  3.451165E-02 -1.178927E-02  0.000000E+00  1.352353E-02 -3.615629E-03  5.251617E-17  7.647613E-01  0.000000E+00
  4.024810E-02 -1.330745E-02  5.000000E-01  4.065618E-02 -1.340293E-02  0.000000E+00  1.435322E-02 -3.692548E-03  1.100343E-16  7.127160E-01  0.000000E+00
  4.686030E-02 -1.497517E-02  5.000000E-01  4.733516E-02 -1.508750E-02  0.000000E+00  1.523827E-02 -3.758837E-03  9.830549E-17  6.607507E-01  0.000000E+00
  5.401090E-02 -1.670139E-02  5.000000E-01  5.455797E-02 -1.683115E-02  0.000000E+00  1.613193E-02 -3.806077E-03  6.645170E-17  6.089340E-01  0.000000E+00
  6.170850E-02 -1.847745E-02  5.000000E-01  6.233331E-02 -1.862514E-02  0.000000E+00  1.700857E-02 -3.825925E-03  4.025800E-17  5.568937E-01  0.000000E+00
  6.996310E-02 -2.028901E-02  5.000000E-01  7.067127E-02 -2.045500E-02  0.000000E+00  1.785442E-02 -3.805859E-03  2.438043E-17  5.039259E-01  0.000000E+00
  7.878500E-02 -2.211641E-02  5.000000E-01  7.958226E-02 -2.230086E-02  0.000000E+00  1.866637E-02 -3.742246E-03  1.542597E-17  4.502277E-01  0.000000E+00
  8.818390E-02 -2.394049E-02  5.000000E-01  8.907608E-02 -2.414336E-02  0.000000E+00  1.944584E-02 -3.635167E-03  9.471539E-18  3.962335E-01  0.000000E+00
  9.816930E-02 -2.573866E-02  5.000000E-01  9.916232E-02 -2.595969E-02  0.000000E+00  2.018738E-02 -3.479950E-03  5.070465E-18  3.420036E-01  0.000000E+00
  1.087500E-01 -2.748401E-02  5.000000E-01  1.098499E-01 -2.772266E-02  0.000000E+00  2.087479E-02 -3.273090E-03  1.929843E-18  2.879603E-01  0.000000E+00
  1.199340E-01 -2.914915E-02  5.000000E-01  1.211468E-01 -2.940462E-02  0.000000E+00  2.147316E-02 -3.009542E-03  1.820999E-19  2.348085E-01  0.000000E+00
  1.317280E-01 -3.070197E-02  5.000000E-01  1.330599E-01 -3.097312E-02  0.000000E+00  2.192169E-02 -2.680433E-03  6.606315E-19  1.833986E-01  0.000000E+00
  1.441380E-01 -3.210502E-02  5.000000E-01  1.455952E-01 -3.239034E-02  0.000000E+00  2.214901E-02 -2.285706E-03  3.465138E-18  1.355192E-01  0.000000E+00
  1.441380E-01 -3.210502E-02  5.000000E-01  1.455952E-01 -3.239034E-02  0.000000E+00  2.214901E-02 -2.285706E-03  3.465138E-18  1.355192E-01  0.000000E+00
  1.571670E-01 -3.332175E-02  5.000000E-01  1.587558E-01 -3.361936E-02  0.000000E+00  2.210369E-02 -1.839082E-03  4.295269E-18  9.375462E-02  0.000000E+00
  1.708170E-01 -3.431715E-02  5.000000E-01  1.725437E-01 -3.462482E-02  0.000000E+00  2.179505E-02 -1.370327E-03  2.486738E-18  6.084775E-02  0.000000E+00
  1.850860E-01 -3.506742E-02  5.000000E-01  1.869568E-01 -3.538265E-02  0.000000E+00  2.132691E-02 -9.325175E-04  3.471685E-18  3.916106E-02  0.000000E+00
  1.999720E-01 -3.558106E-02  5.000000E-01  2.019931E-01 -3.590149E-02  0.000000E+00  2.088001E-02 -5.940729E-04  6.176317E-18  2.943799E-02  0.000000E+00
  2.154670E-01 -3.592368E-02  5.000000E-01  2.176446E-01 -3.624756E-02  0.000000E+00  2.059754E-02 -3.814329E-04  6.489038E-18  2.730996E-02  0.000000E+00
  2.315610E-01 -3.616548E-02  5.000000E-01  2.339011E-01 -3.649181E-02  0.000000E+00  2.046704E-02 -2.326972E-04  6.495907E-18  2.268924E-02  0.000000E+00
  2.482400E-01 -3.629817E-02  5.000000E-01  2.507486E-01 -3.662584E-02  0.000000E+00  2.039396E-02 -8.164281E-05  7.886072E-18  1.008791E-02  0.000000E+00
  2.654840E-01 -3.629986E-02  5.000000E-01  2.681667E-01 -3.662755E-02  0.000000E+00  2.031156E-02  8.661314E-05  9.667637E-18 -7.339570E-03  0.000000E+00
  2.832720E-01 -3.614528E-02  5.000000E-01  2.861343E-01 -3.647140E-02  0.000000E+00  2.018311E-02  2.696546E-04  1.014840E-17 -2.456553E-02  0.000000E+00
  3.015770E-01 -3.581343E-02  5.000000E-01  3.046242E-01 -3.613620E-02  0.000000E+00  1.999383E-02  4.580258E-04  8.515659E-18 -3.819406E-02  0.000000E+00
  3.203660E-01 -3.529143E-02  5.000000E-01  3.236030E-01 -3.560893E-02  0.000000E+00  1.974243E-02  6.413743E-04  6.283525E-18 -4.710029E-02  0.000000E+00
  3.396030E-01 -3.457449E-02  5.000000E-01  3.430342E-01 -3.488475E-02  0.000000E+00  1.943225E-02  8.134024E-04  2.729047E-18 -5.166779E-02  0.000000E+00
  3.592490E-01 -3.366073E-02  5.000000E-01  3.628786E-01 -3.396176E-02  0.000000E+00  1.906538E-02  9.724753E-04 -1.571079E-18 -5.270274E-02  0.000000E+00
  3.792580E-01 -3.254868E-02  5.000000E-01  3.830897E-01 -3.283848E-02  0.000000E+00  1.864367E-02  1.117514E-03 -4.335852E-18 -5.057778E-02  0.000000E+00
  3.995810E-01 -3.123977E-02  5.000000E-01  4.036179E-01 -3.151636E-02  0.000000E+00  1.817009E-02  1.246102E-03 -5.927440E-18 -4.516417E-02  0.000000E+00
  4.201670E-01 -2.973962E-02  5.000000E-01  4.244118E-01 -3.000105E-02  0.000000E+00  1.764688E-02  1.356464E-03 -6.237023E-18 -3.632805E-02  0.000000E+00
  4.409600E-01 -2.805577E-02  5.000000E-01  4.454148E-01 -2.830020E-02  0.000000E+00  1.707634E-02  1.447897E-03 -4.685494E-18 -2.415409E-02  0.000000E+00
  4.619030E-01 -2.619748E-02  5.000000E-01  4.665693E-01 -2.642314E-02  0.000000E+00  1.646677E-02  1.518210E-03 -1.674008E-18 -8.708191E-03  0.000000E+00
  4.829360E-01 -2.418235E-02  5.000000E-01  4.878147E-01 -2.438766E-02  0.000000E+00  1.583355E-02  1.564714E-03 -2.889547E-19  9.823388E-03  0.000000E+00
  5.039990E-01 -2.203463E-02  5.000000E-01  5.090904E-01 -2.221825E-02  0.000000E+00  1.519463E-02  1.586704E-03  1.299937E-18  3.086049E-02  0.000000E+00
  5.250310E-01 -1.978447E-02  5.000000E-01  5.303348E-01 -1.994537E-02  0.000000E+00  1.456746E-02  1.585707E-03  3.346739E-18  5.353871E-02  0.000000E+00
  5.459710E-01 -1.746471E-02  5.000000E-01  5.514863E-01 -1.760218E-02  0.000000E+00  1.396716E-02  1.565393E-03  2.186482E-18  7.689253E-02  0.000000E+00
  5.667600E-01 -1.510696E-02  5.000000E-01  5.724853E-01 -1.522062E-02  0.000000E+00  1.340861E-02  1.528849E-03  6.491381E-19  1.002500E-01  0.000000E+00
  4.704230E-01  5.314956E-02  5.000000E-01  4.751754E-01  5.372521E-02  0.000000E+00  2.207916E-02  7.709267E-04 -7.544539E-18 -1.053318E+00  0.000000E+00
  4.494880E-01  5.235769E-02  5.000000E-01  4.540289E-01  5.292534E-02  0.000000E+00  2.188285E-02  8.581275E-04 -8.259443E-18 -1.046642E+00  0.000000E+00
  4.286690E-01  5.151035E-02  5.000000E-01  4.329997E-01  5.206945E-02  0.000000E+00  2.185229E-02  9.121886E-04 -9.077919E-18 -1.045458E+00  0.000000E+00
  4.080230E-01  5.062843E-02  5.000000E-01  4.121452E-01  5.117863E-02  0.000000E+00  2.199545E-02  9.727438E-04 -1.002943E-17 -1.045702E+00  0.000000E+00
  3.876050E-01  4.969686E-02  5.000000E-01  3.915210E-01  5.023764E-02  0.000000E+00  2.225016E-02  1.057785E-03 -1.056004E-17 -1.044742E+00  0.000000E+00
  3.674690E-01  4.870211E-02  5.000000E-01  3.711816E-01  4.923285E-02  0.000000E+00  2.252765E-02  1.164332E-03 -1.119130E-17 -1.041898E+00  0.000000E+00
  3.476650E-01  4.763403E-02  5.000000E-01  3.511776E-01  4.815398E-02  0.000000E+00  2.277191E-02  1.288051E-03 -1.232196E-17 -1.037227E+00  0.000000E+00
  3.282390E-01  4.648477E-02  5.000000E-01  3.315555E-01  4.699312E-02  0.000000E+00  2.296608E-02  1.426131E-03 -1.379844E-17 -1.031082E+00  0.000000E+00
  3.092330E-01  4.524902E-02  5.000000E-01  3.123575E-01  4.574489E-02  0.000000E+00  2.311264E-02  1.573402E-03 -1.380309E-17 -1.024106E+00  0.000000E+00
  2.906860E-01  4.392962E-02  5.000000E-01  2.936232E-01  4.441216E-02  0.000000E+00  2.322134E-02  1.724731E-03 -1.257453E-17 -1.016933E+00  0.000000E+00
  2.726330E-01  4.253207E-02  5.000000E-01  2.753879E-01  4.300050E-02  0.000000E+00  2.330455E-02  1.879240E-03 -1.180278E-17 -1.009829E+00  0.000000E+00
  2.551020E-01  4.106183E-02  5.000000E-01  2.576799E-01  4.151541E-02  0.000000E+00  2.337069E-02  2.037986E-03 -1.117523E-17 -1.002798E+00  0.000000E+00
  2.381210E-01  3.952479E-02  5.000000E-01  2.405274E-01  3.996285E-02  0.000000E+00  2.342571E-02  2.204340E-03 -1.004543E-17 -9.956974E-01  0.000000E+00
  2.217090E-01  3.792316E-02  5.000000E-01  2.239496E-01  3.834505E-02  0.000000E+00  2.346944E-02  2.379494E-03 -9.491489E-18 -9.888355E-01  0.000000E+00
  2.058840E-01  3.625947E-02  5.000000E-01  2.079648E-01  3.666455E-02  0.000000E+00  2.348215E-02  2.542138E-03 -9.331017E-18 -9.844318E-01  0.000000E+00
  1.906600E-01  3.456139E-02  5.000000E-01  1.925871E-01  3.494932E-02  0.000000E+00  2.345624E-02  2.655930E-03 -1.123718E-17 -9.858887E-01  0.000000E+00
  1.760460E-01  3.287946E-02  5.000000E-01  1.778255E-01  3.325041E-02  0.000000E+00  2.345884E-02  2.725578E-03 -1.751730E-17 -9.937276E-01  0.000000E+00
  1.620500E-01  3.123790E-02  5.000000E-01  1.636881E-01  3.159227E-02  0.000000E+00  2.358151E-02  2.793284E-03 -2.894786E-17 -1.005188E+00  0.000000E+00
  1.486750E-01  2.963893E-02  5.000000E-01  1.501781E-01  2.997716E-02  0.000000E+00  2.384519E-02  2.888759E-03 -4.674661E-17 -1.017347E+00  0.000000E+00
  1.359210E-01  2.807439E-02  5.000000E-01  1.372953E-01  2.839681E-02  0.000000E+00  2.419960E-02  3.019925E-03 -7.116771E-17 -1.028453E+00  0.000000E+00
  1.237890E-01  2.653545E-02  5.000000E-01  1.250407E-01  2.684233E-02  0.000000E+00  2.457409E-02  3.184163E-03 -1.081181E-16 -1.037858E+00  0.000000E+00
  1.122730E-01  2.501257E-02  5.000000E-01  1.134084E-01  2.530408E-02  0.000000E+00  2.491709E-02  3.376305E-03 -1.726065E-16 -1.045659E+00  0.000000E+00
  1.013710E-01  2.350010E-02  5.000000E-01  1.023964E-01  2.377633E-02  0.000000E+00  2.520578E-02  3.589859E-03 -2.857326E-16 -1.052466E+00  0.000000E+00
  9.107400E-02  2.199599E-02  5.000000E-01  9.199536E-02  2.225703E-02  0.000000E+00  2.544377E-02  3.824030E-03 -4.830094E-16 -1.058854E+00  0.000000E+00
  9.107400E-02  2.199599E-02  5.000000E-01  9.199536E-02  2.225703E-02  0.000000E+00  2.544377E-02  3.824030E-03 -4.830094E-16 -1.058854E+00  0.000000E+00
  8.137660E-02  2.049799E-02  5.000000E-01  8.220003E-02  2.074390E-02  0.000000E+00  2.563915E-02  4.077183E-03 -8.265557E-16 -1.065570E+00  0.000000E+00
  7.227050E-02  1.900851E-02  5.000000E-01  7.300197E-02  1.923938E-02  0.000000E+00  2.579631E-02  4.343384E-03 -1.429875E-15 -1.073629E+00  0.000000E+00
  6.374670E-02  1.753264E-02  5.000000E-01  6.439209E-02  1.774861E-02  0.000000E+00  2.592606E-02  4.623754E-03 -2.491001E-15 -1.083701E+00  0.000000E+00
  5.579720E-02  1.607369E-02  5.000000E-01  5.636231E-02  1.627492E-02  0.000000E+00  2.602902E-02  4.914448E-03 -4.318336E-15 -1.096696E+00  0.000000E+00
  4.841260E-02  1.464018E-02  5.000000E-01  4.890313E-02  1.482693E-02  0.000000E+00  2.610334E-02  5.210202E-03 -7.345264E-15 -1.113604E+00  0.000000E+00
  4.158390E-02  1.323992E-02  5.000000E-01  4.200547E-02  1.341254E-02  0.000000E+00  2.615415E-02  5.517458E-03 -1.208549E-14 -1.134816E+00  0.000000E+00
  3.530370E-02  1.187778E-02  5.000000E-01  3.566185E-02  1.203663E-02  0.000000E+00  2.616250E-02  5.830890E-03 -1.902149E-14 -1.161172E+00  0.000000E+00
  2.956270E-02  1.056325E-02  5.000000E-01  2.986287E-02  1.070884E-02  0.000000E+00  2.610113E-02  6.145666E-03 -2.840494E-14 -1.193336E+00  0.000000E+00
  2.435310E-02  9.302896E-03  5.000000E-01  2.460066E-02  9.435748E-03  0.000000E+00  2.593000E-02  6.473634E-03 -3.969141E-14 -1.230722E+00  0.000000E+00
  1.967110E-02  8.097181E-03  5.000000E-01  1.987137E-02  8.217858E-03  0.000000E+00  2.551451E-02  6.785370E-03 -5.048371E-14 -1.273638E+00  0.000000E+00
  1.550860E-02  6.953275E-03  5.000000E-01  1.566684E-02  7.062399E-03  0.000000E+00  2.467677E-02  7.032404E-03 -5.595764E-14 -1.322390E+00  0.000000E+00
  1.185930E-02  5.874833E-03  5.000000E-01  1.198068E-02  5.973066E-03  0.000000E+00  2.331924E-02  7.207476E-03 -5.051095E-14 -1.375129E+00  0.000000E+00
  8.724160E-03  4.858032E-03  5.000000E-01  8.813883E-03  4.945997E-03  0.000000E+00  2.156834E-02  7.338353E-03 -3.246583E-14 -1.431394E+00  0.000000E+00
  6.091130E-03  3.911061E-03  5.000000E-01  6.154263E-03  3.989462E-03  0.000000E+00  2.031332E-02  7.814651E-03 -9.779702E-15 -1.486584E+00  0.000000E+00
  3.952840E-03  3.036632E-03  5.000000E-01  3.994378E-03  3.106202E-03  0.000000E+00  2.112732E-02  9.727982E-03  2.607693E-15 -1.523769E+00  0.000000E+00
  2.330070E-03  2.221943E-03  5.000000E-01  2.355220E-03  2.283286E-03  0.000000E+00  2.423465E-02  1.419015E-02 -1.296694E-15 -1.531466E+00  0.000000E+00
  1.198080E-03  1.485100E-03  5.000000E-01  1.211798E-03  1.539002E-03  0.000000E+00  2.759998E-02  2.138697E-02 -1.199663E-14 -1.519642E+00  0.000000E+00
  5.019560E-04  8.591613E-04  5.000000E-01  5.086442E-04  9.067416E-04  0.000000E+00  3.041743E-02  3.350707E-02 -2.110883E-14 -1.531182E+00  0.000000E+00
  1.313430E-04  3.760484E-04  5.000000E-01  1.342884E-04  4.187498E-04  0.000000E+00  3.507598E-02  7.038603E-02 -3.184669E-14 -1.566389E+00  0.000000E+00
  8.078190E-06  6.791404E-05  5.000000E-01  9.778777E-06  1.075036E-04  0.000000E+00  3.055496E-02  1.733168E-01 -4.326608E-14 -1.484873E+00  0.000000E+00
 -1.602820E-06 -3.851477E-05  5.000000E-01  0.000000E+00  0.000000E+00  0.000000E+00 -4.940700E-03  2.521568E-01 -5.785742E-14 -1.190927E+00  0.000000E+00
  9.141860E-06 -1.485684E-04  5.000000E-01  1.085319E-05 -1.111650E-04  0.000000E+00 -4.976118E-02  1.967983E-01 -7.444396E-14 -4.688862E-01  0.000000E+00