 Title = "ADflow Slice Data"
Variables =  "CoordinateX"  "CoordinateY"  "CoordinateZ"  "XoC"  "YoC"  "ZoC" "VelocityX" "VelocityY" "VelocityZ" "CoefPressure" "Mach" 
Zone T= "Slice_0001 None Absolute Regular z = 0.50000000"
 Nodes =          192  Elements=          184  ZONETYPE=FELINESEG
 DATAPACKING=POINT
  5.667600E-01 -4.578935E-03  5.000000E-01  5.724853E-01 -4.706649E-03  0.000000E+00  7.744136E-04  3.531183E-05  1.424911E-18  1.000648E-01  0.000000E+00
  5.873410E-01 -3.490697E-03  5.000000E-01  5.932742E-01 -3.607421E-03  0.000000E+00  1.519793E-03  9.191774E-05  1.290795E-18  1.055366E-01  0.000000E+00
  6.076580E-01 -2.113383E-03  5.000000E-01  6.137963E-01 -2.216198E-03  0.000000E+00  2.096278E-03  1.502703E-04  1.588053E-18  1.150830E-01  0.000000E+00
  6.276600E-01 -6.126171E-04  5.000000E-01  6.340003E-01 -7.002754E-04  0.000000E+00  2.562285E-03  1.924598E-04  7.877931E-19  1.273339E-01  0.000000E+00
  6.472970E-01  8.606004E-04  5.000000E-01  6.538357E-01  7.878201E-04  0.000000E+00  2.976903E-03  2.130856E-04  1.712852E-19  1.395639E-01  0.000000E+00
  6.665260E-01  2.178295E-03  5.000000E-01  6.732589E-01  2.118822E-03  0.000000E+00  3.381313E-03  2.155032E-04  9.995862E-19  1.497754E-01  0.000000E+00
  6.853050E-01  3.289843E-03  5.000000E-01  6.922275E-01  3.241595E-03  0.000000E+00  3.787266E-03  2.103086E-04  1.176233E-18  1.561777E-01  0.000000E+00
  7.035980E-01  4.240768E-03  5.000000E-01  7.107052E-01  4.202123E-03  0.000000E+00  4.179604E-03  2.067307E-04 -6.896265E-19  1.588697E-01  0.000000E+00
  7.213750E-01  5.079943E-03  5.000000E-01  7.286618E-01  5.049774E-03  0.000000E+00  4.530564E-03  2.074717E-04 -1.403835E-18  1.598345E-01  0.000000E+00
  7.386080E-01  5.848076E-03  5.000000E-01  7.460688E-01  5.825664E-03  0.000000E+00  4.811172E-03  2.125427E-04 -5.495488E-19  1.606896E-01  0.000000E+00
  7.552750E-01  6.579061E-03  5.000000E-01  7.629041E-01  6.564031E-03  0.000000E+00  5.002278E-03  2.222384E-04 -9.480042E-19  1.622422E-01  0.000000E+00
  7.713580E-01  7.300863E-03  5.000000E-01  7.791496E-01  7.293123E-03  0.000000E+00  5.106211E-03  2.345360E-04 -1.149915E-18  1.647572E-01  0.000000E+00
  7.868410E-01  8.028946E-03  5.000000E-01  7.947889E-01  8.028559E-03  0.000000E+00  5.161396E-03  2.351217E-04 -2.778897E-19  1.693763E-01  0.000000E+00
  8.017160E-01  8.691111E-03  5.000000E-01  8.098141E-01  8.697411E-03  0.000000E+00  5.237952E-03  2.058978E-04 -2.456805E-18  1.767584E-01  0.000000E+00
  8.159740E-01  9.179314E-03  5.000000E-01  8.242161E-01  9.190544E-03  0.000000E+00  5.397330E-03  1.468754E-04 -3.995276E-18  1.837477E-01  0.000000E+00
  8.296120E-01  9.453684E-03  5.000000E-01  8.379919E-01  9.467685E-03  0.000000E+00  5.666974E-03  6.902115E-05 -1.346389E-18  1.867501E-01  0.000000E+00
  8.426300E-01  9.512965E-03  5.000000E-01  8.511413E-01  9.527564E-03  0.000000E+00  6.051607E-03 -2.158180E-05 -1.404437E-19  1.852232E-01  0.000000E+00
  8.550290E-01  9.375552E-03  5.000000E-01  8.636655E-01  9.388764E-03  0.000000E+00  6.547022E-03 -1.233083E-04 -3.317017E-19  1.798977E-01  0.000000E+00
  8.668160E-01  9.069800E-03  5.000000E-01  8.755716E-01  9.079925E-03  0.000000E+00  7.143406E-03 -2.351360E-04 -9.942767E-20  1.711568E-01  0.000000E+00
  8.779950E-01  8.630311E-03  5.000000E-01  8.868635E-01  8.635997E-03  0.000000E+00  7.825830E-03 -3.552051E-04  1.331215E-18  1.591007E-01  0.000000E+00
  8.885730E-01  8.091582E-03  5.000000E-01  8.975483E-01  8.091827E-03  0.000000E+00  8.576429E-03 -4.813957E-04  1.957091E-18  1.440479E-01  0.000000E+00
  8.985610E-01  7.483543E-03  5.000000E-01  9.076372E-01  7.477648E-03  0.000000E+00  9.373467E-03 -6.086494E-04  7.049907E-20  1.262917E-01  0.000000E+00
  9.079670E-01  6.837499E-03  5.000000E-01  9.171382E-01  6.825079E-03  0.000000E+00  1.018979E-02 -7.276989E-04 -6.674544E-19  1.060595E-01  0.000000E+00
  9.168010E-01  6.184160E-03  5.000000E-01  9.260614E-01  6.165142E-03  0.000000E+00  1.099786E-02 -8.308691E-04  3.903029E-19  8.400527E-02  0.000000E+00
  9.168010E-01  6.184160E-03  5.000000E-01  9.260614E-01  6.165142E-03  0.000000E+00  1.099786E-02 -8.308691E-04  3.903029E-19  8.400527E-02  0.000000E+00
  9.250730E-01  5.547015E-03  5.000000E-01  9.344169E-01  5.521562E-03  0.000000E+00  1.177795E-02 -9.176474E-04  5.790321E-19  6.113182E-02  0.000000E+00
  9.327940E-01  4.939339E-03  5.000000E-01  9.422159E-01  4.907750E-03  0.000000E+00  1.252447E-02 -9.953042E-04  4.956995E-19  3.840192E-02  0.000000E+00
  9.399760E-01  4.363704E-03  5.000000E-01  9.494704E-01  4.326302E-03  0.000000E+00  1.324337E-02 -1.071508E-03 -4.337060E-19  1.613965E-02  0.000000E+00
  9.466320E-01  3.820298E-03  5.000000E-01  9.561936E-01  3.777407E-03  0.000000E+00  1.394413E-02 -1.149228E-03 -2.211794E-18 -6.031599E-03  0.000000E+00
  9.527730E-01  3.309566E-03  5.000000E-01  9.623967E-01  3.261517E-03  0.000000E+00  1.463983E-02 -1.233115E-03 -2.641107E-18 -2.831485E-02  0.000000E+00
  9.584110E-01  2.829094E-03  5.000000E-01  9.680916E-01  2.776193E-03  0.000000E+00  1.534983E-02 -1.331278E-03 -2.868511E-18 -5.068253E-02  0.000000E+00
  9.635570E-01  2.375450E-03  5.000000E-01  9.732896E-01  2.317968E-03  0.000000E+00  1.609547E-02 -1.448328E-03 -3.862030E-18 -7.351503E-02  0.000000E+00
  9.682220E-01  1.947423E-03  5.000000E-01  9.780017E-01  1.885618E-03  0.000000E+00  1.689805E-02 -1.584664E-03 -5.089092E-18 -9.748448E-02  0.000000E+00
  9.724140E-01  1.546188E-03  5.000000E-01  9.822360E-01  1.480332E-03  0.000000E+00  1.779268E-02 -1.746563E-03 -6.667683E-18 -1.228558E-01  0.000000E+00
  9.761430E-01  1.171598E-03  5.000000E-01  9.860027E-01  1.101959E-03  0.000000E+00  1.884122E-02 -1.947541E-03 -1.018498E-17 -1.497267E-01  0.000000E+00
  9.794160E-01  8.243376E-04  5.000000E-01  9.893087E-01  7.511911E-04  0.000000E+00  2.011304E-02 -2.196884E-03 -1.525597E-17 -1.787251E-01  0.000000E+00
  9.822400E-01  5.074521E-04  5.000000E-01  9.921612E-01  4.311053E-04  0.000000E+00  2.161502E-02 -2.492545E-03 -1.784801E-17 -2.107073E-01  0.000000E+00
  9.846200E-01  2.260688E-04  5.000000E-01  9.945653E-01  1.468804E-04  0.000000E+00  2.318543E-02 -2.813409E-03 -1.486741E-17 -2.453729E-01  0.000000E+00
  9.865620E-01 -1.453864E-05  5.000000E-01  9.965269E-01 -9.615698E-05  0.000000E+00  2.436994E-02 -3.067002E-03 -8.023063E-18 -2.817538E-01  0.000000E+00
  9.880680E-01 -2.086096E-04  5.000000E-01  9.980481E-01 -2.921878E-04  0.000000E+00  2.412622E-02 -3.099779E-03 -1.965488E-17 -3.261150E-01  0.000000E+00
  9.891420E-01 -3.514268E-04  5.000000E-01  9.991329E-01 -4.364474E-04  0.000000E+00  2.228974E-02 -3.156104E-03 -1.220659E-16 -3.680553E-01  0.000000E+00
  9.897860E-01 -4.389508E-04  5.000000E-01  9.997835E-01 -5.248553E-04  0.000000E+00  3.011909E-02 -3.086888E-03 -4.013395E-16 -3.071389E-01  0.000000E+00
  9.900000E-01 -4.683041E-04  5.000000E-01  9.999996E-01 -5.545050E-04  0.000000E+00  2.076327E-02  4.878814E-03 -5.975563E-16 -5.582747E-01  0.000000E+00
  9.900000E-01 -1.843771E-04  5.000000E-01  9.999996E-01 -2.677106E-04  0.000000E+00  8.427545E-04 -7.060761E-03 -3.490827E-16 -7.444390E-01  0.000000E+00
  9.900000E-01  9.954991E-05  5.000000E-01  9.999996E-01  1.908374E-05  0.000000E+00 -3.532080E-04 -1.985341E-02 -3.222208E-17 -5.844028E-01  0.000000E+00
  9.900000E-01  3.834769E-04  5.000000E-01  9.999996E-01  3.058781E-04  0.000000E+00 -1.049594E-04 -7.461587E-03  2.248079E-17 -5.911470E-01  0.000000E+00
  9.900000E-01  6.674039E-04  5.000000E-01  9.999996E-01  5.926725E-04  0.000000E+00  4.048648E-04 -4.418252E-03  4.114208E-17 -6.456168E-01  0.000000E+00
  9.900000E-01  9.513309E-04  5.000000E-01  9.999996E-01  8.794668E-04  0.000000E+00  5.726822E-03 -5.703319E-03  1.136031E-16 -5.938611E-01  0.000000E+00
  9.900000E-01  9.513309E-04  5.000000E-01  9.999996E-01  8.794668E-04  0.000000E+00  5.726822E-03 -5.703319E-03  1.136031E-16 -5.938611E-01  0.000000E+00
  9.897890E-01  1.017902E-03  5.000000E-01  9.997865E-01  9.467104E-04  0.000000E+00  7.522514E-03 -2.939932E-03  1.201486E-16 -5.261588E-01  0.000000E+00
  9.891540E-01  1.218672E-03  5.000000E-01  9.991451E-01  1.149507E-03  0.000000E+00  3.850098E-03 -1.130832E-03  5.474982E-17 -5.449756E-01  0.000000E+00
  9.880950E-01  1.555405E-03  5.000000E-01  9.980754E-01  1.489641E-03  0.000000E+00  2.755335E-03 -8.747456E-04  1.565888E-17 -5.455023E-01  0.000000E+00
  9.866100E-01  2.031331E-03  5.000000E-01  9.965754E-01  1.970374E-03  0.000000E+00  2.055028E-03 -6.722393E-04  9.067333E-19 -5.382969E-01  0.000000E+00
  9.846960E-01  2.650667E-03  5.000000E-01  9.946420E-01  2.595965E-03  0.000000E+00  1.333403E-03 -4.333890E-04 -3.107276E-18 -5.345939E-01  0.000000E+00
  9.823490E-01  3.418276E-03  5.000000E-01  9.922713E-01  3.371326E-03  0.000000E+00  7.093625E-04 -2.317961E-04 -2.643251E-18 -5.328778E-01  0.000000E+00
  9.795670E-01  4.338820E-03  5.000000E-01  9.894613E-01  4.301166E-03  0.000000E+00  2.065171E-04 -6.834514E-05 -1.732999E-18 -5.318357E-01  0.000000E+00
  9.763420E-01  5.418102E-03  5.000000E-01  9.862037E-01  5.391348E-03  0.000000E+00 -1.994316E-04  6.722730E-05 -1.484686E-18 -5.316161E-01  0.000000E+00
  9.726710E-01  6.659895E-03  5.000000E-01  9.824956E-01  6.645682E-03  0.000000E+00 -5.280481E-04  1.795445E-04 -1.422753E-18 -5.323475E-01  0.000000E+00
  9.685460E-01  8.067435E-03  5.000000E-01  9.783289E-01  8.067436E-03  0.000000E+00 -7.900127E-04  2.705785E-04 -1.845701E-18 -5.339185E-01  0.000000E+00
  9.639600E-01  9.642954E-03  5.000000E-01  9.736966E-01  9.658867E-03  0.000000E+00 -9.903041E-04  3.411914E-04 -2.106316E-18 -5.361517E-01  0.000000E+00
  9.589060E-01  1.138873E-02  5.000000E-01  9.685916E-01  1.142228E-02  0.000000E+00 -1.131044E-03  3.914036E-04 -2.351558E-18 -5.388367E-01  0.000000E+00
  9.533750E-01  1.330614E-02  5.000000E-01  9.630047E-01  1.335905E-02  0.000000E+00 -1.214629E-03  4.212895E-04 -2.375190E-18 -5.417349E-01  0.000000E+00
  9.473580E-01  1.539421E-02  5.000000E-01  9.569270E-01  1.546821E-02  0.000000E+00 -1.246101E-03  4.320377E-04 -1.518556E-18 -5.445928E-01  0.000000E+00
  9.408450E-01  1.765002E-02  5.000000E-01  9.503482E-01  1.774679E-02  0.000000E+00 -1.234209E-03  4.264658E-04 -7.976318E-20 -5.471656E-01  0.000000E+00
  9.338260E-01  2.006883E-02  5.000000E-01  9.432583E-01  2.019003E-02  0.000000E+00 -1.190984E-03  4.087503E-04  1.216403E-18 -5.492680E-01  0.000000E+00
  9.262910E-01  2.264300E-02  5.000000E-01  9.356472E-01  2.279020E-02  0.000000E+00 -1.130089E-03  3.836465E-04  6.056666E-19 -5.508205E-01  0.000000E+00
  9.182290E-01  2.536086E-02  5.000000E-01  9.275038E-01  2.553550E-02  0.000000E+00 -1.064853E-03  3.557684E-04 -2.318697E-19 -5.518507E-01  0.000000E+00
  9.096280E-01  2.820628E-02  5.000000E-01  9.188159E-01  2.840966E-02  0.000000E+00 -1.006801E-03  3.290416E-04  1.474280E-19 -5.524704E-01  0.000000E+00
  9.004770E-01  3.115805E-02  5.000000E-01  9.095725E-01  3.139125E-02  0.000000E+00 -9.648211E-04  3.062166E-04 -1.079397E-19 -5.528503E-01  0.000000E+00
  8.907650E-01  3.418843E-02  5.000000E-01  8.997624E-01  3.445222E-02  0.000000E+00 -9.448453E-04  2.885434E-04  7.149659E-19 -5.531844E-01  0.000000E+00
  8.804800E-01  3.726052E-02  5.000000E-01  8.893736E-01  3.755534E-02  0.000000E+00 -9.499659E-04  2.756880E-04 -2.363630E-19 -5.536556E-01  0.000000E+00
  8.696090E-01  4.032494E-02  5.000000E-01  8.783928E-01  4.065071E-02  0.000000E+00 -9.807370E-04  2.659588E-04 -2.957829E-18 -5.544324E-01  0.000000E+00
  8.696090E-01  4.032494E-02  5.000000E-01  8.783928E-01  4.065071E-02  0.000000E+00 -9.807370E-04  2.659588E-04 -2.957829E-18 -5.544324E-01  0.000000E+00
  8.581400E-01  4.331867E-02  5.000000E-01  8.668080E-01  4.367467E-02  0.000000E+00 -1.035610E-03  2.569666E-04 -3.748731E-18 -5.556624E-01  0.000000E+00
  8.460600E-01  4.617032E-02  5.000000E-01  8.546060E-01  4.655513E-02  0.000000E+00 -1.112149E-03  2.466765E-04 -1.294662E-18 -5.573921E-01  0.000000E+00
  8.333640E-01  4.881821E-02  5.000000E-01  8.417817E-01  4.922975E-02  0.000000E+00 -1.208464E-03  2.338598E-04  1.760551E-18 -5.596325E-01  0.000000E+00
  8.200460E-01  5.121239E-02  5.000000E-01  8.283293E-01  5.164811E-02  0.000000E+00 -1.323483E-03  2.181041E-04  1.786357E-18 -5.624569E-01  0.000000E+00
  8.061050E-01  5.332092E-02  5.000000E-01  8.142475E-01  5.377793E-02  0.000000E+00 -1.456553E-03  2.015488E-04  1.019536E-18 -5.659003E-01  0.000000E+00
  7.915460E-01  5.516529E-02  5.000000E-01  7.995414E-01  5.564093E-02  0.000000E+00 -1.607212E-03  1.902332E-04 -1.100073E-19 -5.698835E-01  0.000000E+00
  7.763770E-01  5.684293E-02  5.000000E-01  7.842192E-01  5.733552E-02  0.000000E+00 -1.773984E-03  1.891754E-04 -3.392256E-19 -5.743784E-01  0.000000E+00
  7.606070E-01  5.846997E-02  5.000000E-01  7.682900E-01  5.897899E-02  0.000000E+00 -1.949701E-03  1.942925E-04 -1.761453E-19 -5.798364E-01  0.000000E+00
  7.442510E-01  6.005538E-02  5.000000E-01  7.517688E-01  6.058041E-02  0.000000E+00 -2.118754E-03  1.986876E-04 -8.214114E-20 -5.864706E-01  0.000000E+00
  7.273250E-01  6.158701E-02  5.000000E-01  7.346719E-01  6.212751E-02  0.000000E+00 -2.262840E-03  1.998503E-04  3.073458E-19 -5.933558E-01  0.000000E+00
  7.098490E-01  6.304730E-02  5.000000E-01  7.170194E-01  6.360255E-02  0.000000E+00 -2.357409E-03  1.926365E-04 -2.357981E-19 -6.005613E-01  0.000000E+00
  6.918480E-01  6.441079E-02  5.000000E-01  6.988366E-01  6.497981E-02  0.000000E+00 -2.321295E-03  1.653272E-04 -2.667854E-18 -6.157991E-01  0.000000E+00
  6.733520E-01  6.565019E-02  5.000000E-01  6.801538E-01  6.623172E-02  0.000000E+00 -1.907666E-03  1.084869E-04 -5.883464E-18 -6.596523E-01  0.000000E+00
  6.543930E-01  6.674291E-02  5.000000E-01  6.610033E-01  6.733548E-02  0.000000E+00 -6.108296E-04  2.150168E-05 -5.372450E-18 -7.535350E-01  0.000000E+00
  6.350090E-01  6.769554E-02  5.000000E-01  6.414236E-01  6.829772E-02  0.000000E+00  2.244727E-03 -9.980807E-05  2.197657E-17 -8.929355E-01  0.000000E+00
  6.152440E-01  6.855500E-02  5.000000E-01  6.214590E-01  6.916586E-02  0.000000E+00  7.016098E-03 -2.739845E-04  1.331809E-16 -1.039727E+00  0.000000E+00
  5.951420E-01  6.937027E-02  5.000000E-01  6.011539E-01  6.998937E-02  0.000000E+00  1.295647E-02 -5.078225E-04  3.927490E-16 -1.151623E+00  0.000000E+00
  5.747530E-01  7.019307E-02  5.000000E-01  5.805590E-01  7.082048E-02  0.000000E+00  1.819235E-02 -7.631837E-04  8.216315E-16 -1.214989E+00  0.000000E+00
  5.541290E-01  7.108061E-02  5.000000E-01  5.597268E-01  7.171698E-02  0.000000E+00  2.120852E-02 -9.617199E-04  1.422999E-15 -1.241360E+00  0.000000E+00
  5.333260E-01  7.205422E-02  5.000000E-01  5.387137E-01  7.270043E-02  0.000000E+00  2.204610E-02 -9.336133E-04  2.242539E-15 -1.237909E+00  0.000000E+00
  5.124010E-01  7.284708E-02  5.000000E-01  5.175773E-01  7.350129E-02  0.000000E+00  2.147529E-02 -5.183882E-04  3.166283E-15 -1.198728E+00  0.000000E+00
  4.914140E-01  7.305817E-02  5.000000E-01  4.963784E-01  7.371451E-02  0.000000E+00  1.980008E-02  2.477430E-04  3.693252E-15 -1.116079E+00  0.000000E+00
  4.704230E-01  7.228847E-02  5.000000E-01  4.751754E-01  7.293704E-02  0.000000E+00  1.698324E-02  1.142987E-03  3.344158E-15 -9.866405E-01  0.000000E+00
  1.696960E-04 -3.382690E-04  5.000000E-01  1.730288E-04 -4.231567E-04  0.000000E+00 -5.517980E-02  7.539021E-02  4.300611E-12  8.636271E-01  0.000000E+00
  8.054360E-04 -7.523947E-04  5.000000E-01  8.151891E-04 -8.414646E-04  0.000000E+00 -3.343571E-02  1.970527E-02  3.131727E-12  1.222400E+00  0.000000E+00
  1.973980E-03 -1.202790E-03  5.000000E-01  1.995534E-03 -1.296408E-03  0.000000E+00 -8.090657E-03  3.103663E-03  1.588039E-12  1.142842E+00  0.000000E+00
  3.614630E-03 -1.688848E-03  5.000000E-01  3.652753E-03 -1.787376E-03  0.000000E+00  6.313235E-03 -1.641829E-03  4.450758E-13  1.048931E+00  0.000000E+00
  5.721210E-03 -2.213221E-03  5.000000E-01  5.780607E-03 -2.317043E-03  0.000000E+00  1.289988E-02 -2.948952E-03 -7.668916E-14  9.812144E-01  0.000000E+00
  8.297500E-03 -2.766741E-03  5.000000E-01  8.382915E-03 -2.876153E-03  0.000000E+00  1.547489E-02 -3.049505E-03 -1.703869E-13  9.128750E-01  0.000000E+00
  1.136560E-02 -3.322377E-03  5.000000E-01  1.148200E-02 -3.437401E-03  0.000000E+00  1.610146E-02 -2.685194E-03 -1.037204E-13  8.438243E-01  0.000000E+00
  1.493280E-02 -3.864734E-03  5.000000E-01  1.508523E-02 -3.985236E-03  0.000000E+00  1.598845E-02 -2.272846E-03 -3.279935E-14  7.841729E-01  0.000000E+00
  1.899460E-02 -4.399597E-03  5.000000E-01  1.918805E-02 -4.525500E-03  0.000000E+00  1.584043E-02 -1.983190E-03  4.541532E-16  7.358851E-01  0.000000E+00
  2.354800E-02 -4.940187E-03  5.000000E-01  2.378743E-02 -5.071549E-03  0.000000E+00  1.590622E-02 -1.791984E-03  6.970373E-15  6.928696E-01  0.000000E+00
  2.860130E-02 -5.480273E-03  5.000000E-01  2.889176E-02 -5.617089E-03  0.000000E+00  1.614035E-02 -1.628611E-03  4.292891E-15  6.511436E-01  0.000000E+00
  3.416500E-02 -6.008871E-03  5.000000E-01  3.451165E-02 -6.151026E-03  0.000000E+00  1.643124E-02 -1.468499E-03  1.341865E-15  6.123892E-01  0.000000E+00
  4.024810E-02 -6.518391E-03  5.000000E-01  4.065618E-02 -6.665692E-03  0.000000E+00  1.669704E-02 -1.306638E-03  4.561566E-17  5.780070E-01  0.000000E+00
  4.686030E-02 -6.999900E-03  5.000000E-01  4.733516E-02 -7.152064E-03  0.000000E+00  1.689076E-02 -1.142304E-03 -1.993095E-16  5.478345E-01  0.000000E+00
  5.401090E-02 -7.446543E-03  5.000000E-01  5.455797E-02 -7.603217E-03  0.000000E+00  1.699647E-02 -9.824820E-04 -1.206885E-16  5.217980E-01  0.000000E+00
  6.170850E-02 -7.855702E-03  5.000000E-01  6.233331E-02 -8.016508E-03  0.000000E+00  1.701152E-02 -8.289550E-04 -3.516826E-17  4.995097E-01  0.000000E+00
  6.996310E-02 -8.221592E-03  5.000000E-01  7.067128E-02 -8.386093E-03  0.000000E+00  1.693125E-02 -6.775315E-04 -6.606676E-19  4.804948E-01  0.000000E+00
  7.878500E-02 -8.536357E-03  5.000000E-01  7.958227E-02 -8.704037E-03  0.000000E+00  1.675230E-02 -5.306618E-04  5.484694E-18  4.652046E-01  0.000000E+00
  8.818390E-02 -8.795793E-03  5.000000E-01  8.907609E-02 -8.966093E-03  0.000000E+00  1.647018E-02 -3.939815E-04  3.651342E-18  4.542794E-01  0.000000E+00
  9.816930E-02 -8.997174E-03  5.000000E-01  9.916233E-02 -9.169508E-03  0.000000E+00  1.607125E-02 -2.714992E-04  1.596745E-18  4.479454E-01  0.000000E+00
  1.087500E-01 -9.140252E-03  5.000000E-01  1.098499E-01 -9.314031E-03  0.000000E+00  1.553572E-02 -1.703508E-04  8.845117E-19  4.465511E-01  0.000000E+00
  1.199340E-01 -9.232991E-03  5.000000E-01  1.211468E-01 -9.407706E-03  0.000000E+00  1.484490E-02 -9.911904E-05  1.013677E-18  4.503637E-01  0.000000E+00
  1.317280E-01 -9.291668E-03  5.000000E-01  1.330599E-01 -9.466976E-03  0.000000E+00  1.399517E-02 -6.539042E-05  1.819925E-18  4.592270E-01  0.000000E+00
  1.441380E-01 -9.345439E-03  5.000000E-01  1.455953E-01 -9.521290E-03  0.000000E+00  1.302712E-02 -7.928553E-05  1.665516E-18  4.728686E-01  0.000000E+00
  1.441380E-01 -9.345439E-03  5.000000E-01  1.455953E-01 -9.521290E-03  0.000000E+00  1.302712E-02 -7.928553E-05  1.665516E-18  4.728686E-01  0.000000E+00
  1.571670E-01 -9.448732E-03  5.000000E-01  1.587558E-01 -9.625626E-03  0.000000E+00  1.205393E-02 -1.525989E-04  7.304601E-19  4.904815E-01  0.000000E+00
  1.708170E-01 -9.690227E-03  5.000000E-01  1.725437E-01 -9.869560E-03  0.000000E+00  1.127426E-02 -3.025621E-04  1.076365E-18  5.098894E-01  0.000000E+00
  1.850860E-01 -1.020969E-02  5.000000E-01  1.869568E-01 -1.039427E-02  0.000000E+00  1.096438E-02 -5.727470E-04  1.473270E-18  5.270010E-01  0.000000E+00
  1.999720E-01 -1.121920E-02  5.000000E-01  2.019931E-01 -1.141397E-02  0.000000E+00  1.144736E-02 -1.062443E-03  1.291839E-18  5.356857E-01  0.000000E+00
  2.154670E-01 -1.300927E-02  5.000000E-01  2.176446E-01 -1.322212E-02  0.000000E+00  1.301928E-02 -1.899842E-03  4.642575E-19  5.244240E-01  0.000000E+00
  2.315610E-01 -1.577502E-02  5.000000E-01  2.339011E-01 -1.601580E-02  0.000000E+00  1.586483E-02 -3.138666E-03 -4.907141E-19  4.753247E-01  0.000000E+00
  2.482400E-01 -1.942582E-02  5.000000E-01  2.507486E-01 -1.970347E-02  0.000000E+00  1.999045E-02 -4.699332E-03 -1.188538E-19  3.764671E-01  0.000000E+00
  2.654840E-01 -2.370056E-02  5.000000E-01  2.681667E-01 -2.402138E-02  0.000000E+00  2.497330E-02 -6.207851E-03  4.013233E-19  2.231194E-01  0.000000E+00
  2.832720E-01 -2.813784E-02  5.000000E-01  2.861344E-01 -2.850347E-02  0.000000E+00  2.949126E-02 -6.776213E-03  4.970785E-19  9.285323E-03  0.000000E+00
  3.015770E-01 -3.204545E-02  5.000000E-01  3.046242E-01 -3.245055E-02  0.000000E+00  3.093185E-02 -5.319693E-03 -1.135348E-18 -2.620247E-01  0.000000E+00
  3.203660E-01 -3.450903E-02  5.000000E-01  3.236030E-01 -3.493901E-02  0.000000E+00  2.609474E-02 -2.015045E-03 -5.293792E-18 -5.402209E-01  0.000000E+00
  3.396030E-01 -3.450539E-02  5.000000E-01  3.430343E-01 -3.493533E-02  0.000000E+00  1.551050E-02  5.477152E-04 -6.543623E-18 -6.893932E-01  0.000000E+00
  3.592490E-01 -3.184107E-02  5.000000E-01  3.628787E-01 -3.224410E-02  0.000000E+00  4.958149E-03  6.579490E-04 -1.752236E-18 -6.090285E-01  0.000000E+00
  3.792580E-01 -2.723587E-02  5.000000E-01  3.830897E-01 -2.759239E-02  0.000000E+00 -1.321101E-03 -3.546667E-04  1.913811E-18 -3.863071E-01  0.000000E+00
  3.995810E-01 -2.155826E-02  5.000000E-01  4.036180E-01 -2.185744E-02  0.000000E+00 -3.783401E-03 -1.021886E-03  9.183847E-19 -1.950204E-01  0.000000E+00
  4.201670E-01 -1.577618E-02  5.000000E-01  4.244119E-01 -1.601698E-02  0.000000E+00 -4.293302E-03 -1.094083E-03 -2.020814E-18 -1.109433E-01  0.000000E+00
  4.409600E-01 -1.093387E-02  5.000000E-01  4.454149E-01 -1.112576E-02  0.000000E+00 -4.119393E-03 -8.046369E-04 -2.422826E-18 -9.070872E-02  0.000000E+00
  4.619030E-01 -7.819494E-03  5.000000E-01  4.665694E-01 -7.979935E-03  0.000000E+00 -3.711268E-03 -4.383214E-04 -1.411605E-18 -6.933666E-02  0.000000E+00
  4.829360E-01 -6.186093E-03  5.000000E-01  4.878148E-01 -6.330038E-03  0.000000E+00 -3.091697E-03 -1.774102E-04  4.527774E-21 -2.674767E-02  0.000000E+00
  5.039990E-01 -5.541329E-03  5.000000E-01  5.090905E-01 -5.678763E-03  0.000000E+00 -2.233514E-03 -4.663346E-05  7.326964E-19  2.463118E-02  0.000000E+00
  5.250310E-01 -5.381888E-03  5.000000E-01  5.303349E-01 -5.517711E-03  0.000000E+00 -1.207519E-03 -5.485402E-06  2.747876E-19  6.785024E-02  0.000000E+00
  5.459710E-01 -5.205917E-03  5.000000E-01  5.514864E-01 -5.339963E-03  0.000000E+00 -1.574466E-04  5.143729E-06  1.427960E-18  9.184336E-02  0.000000E+00
  5.667600E-01 -4.578935E-03  5.000000E-01  5.724853E-01 -4.706649E-03  0.000000E+00  7.744136E-04  3.531183E-05  1.424911E-18  1.000648E-01  0.000000E+00
  4.704230E-01  7.228847E-02  5.000000E-01  4.751754E-01  7.293704E-02  0.000000E+00  1.698324E-02  1.142987E-03  3.344158E-15 -9.866405E-01  0.000000E+00
  4.494880E-01  7.015287E-02  5.000000E-01  4.540290E-01  7.077988E-02  0.000000E+00  1.327204E-02  1.820459E-03  2.312019E-15 -8.249417E-01  0.000000E+00
  4.286690E-01  6.632530E-02  5.000000E-01  4.329997E-01  6.691364E-02  0.000000E+00  9.096248E-03  1.874643E-03  1.232352E-15 -6.846988E-01  0.000000E+00
  4.080230E-01  6.118061E-02  5.000000E-01  4.121452E-01  6.171700E-02  0.000000E+00  4.849383E-03  1.212760E-03  4.986620E-16 -6.284355E-01  0.000000E+00
  3.876050E-01  5.568288E-02  5.000000E-01  3.915210E-01  5.616375E-02  0.000000E+00  9.316175E-04  2.627857E-04  1.291542E-16 -6.621501E-01  0.000000E+00
  3.674690E-01  5.076046E-02  5.000000E-01  3.711817E-01  5.119161E-02  0.000000E+00 -2.337916E-03 -4.229186E-04 -1.228112E-17 -7.383695E-01  0.000000E+00
  3.476650E-01  4.726184E-02  5.000000E-01  3.511777E-01  4.765766E-02  0.000000E+00 -4.710929E-03 -5.103710E-04 -4.952356E-17 -8.123053E-01  0.000000E+00
  3.282390E-01  4.593722E-02  5.000000E-01  3.315555E-01  4.631967E-02  0.000000E+00 -5.946265E-03 -2.755308E-05 -5.116795E-17 -8.849951E-01  0.000000E+00
  3.092330E-01  4.705317E-02  5.000000E-01  3.123576E-01  4.744688E-02  0.000000E+00 -5.549960E-03  4.818356E-04 -4.114314E-17 -9.985926E-01  0.000000E+00
  2.906860E-01  4.963968E-02  5.000000E-01  2.936233E-01  5.005952E-02  0.000000E+00 -2.417744E-03  3.267153E-04 -2.375957E-17 -1.165949E+00  0.000000E+00
  2.726330E-01  5.262512E-02  5.000000E-01  2.753879E-01  5.307511E-02  0.000000E+00  4.711514E-03 -6.417641E-04 -8.842546E-18 -1.325030E+00  0.000000E+00
  2.551020E-01  5.519036E-02  5.000000E-01  2.576799E-01  5.566625E-02  0.000000E+00  1.544951E-02 -1.641112E-03 -1.236095E-17 -1.393087E+00  0.000000E+00
  2.381210E-01  5.679496E-02  5.000000E-01  2.405274E-01  5.728706E-02  0.000000E+00  2.608625E-02 -1.312992E-03 -2.636552E-17 -1.337222E+00  0.000000E+00
  2.217090E-01  5.714239E-02  5.000000E-01  2.239497E-01  5.763800E-02  0.000000E+00  3.269276E-02  7.953086E-04 -2.682423E-17 -1.178292E+00  0.000000E+00
  2.058840E-01  5.612616E-02  5.000000E-01  2.079648E-01  5.661151E-02  0.000000E+00  3.478193E-02  3.599281E-03 -1.555292E-17 -9.649156E-01  0.000000E+00
  1.906600E-01  5.394664E-02  5.000000E-01  1.925871E-01  5.440997E-02  0.000000E+00  3.372801E-02  5.663151E-03 -5.859994E-18 -7.562730E-01  0.000000E+00
  1.760460E-01  5.109010E-02  5.000000E-01  1.778255E-01  5.152459E-02  0.000000E+00  3.108515E-02  6.528966E-03  1.697838E-20 -5.876429E-01  0.000000E+00
  1.620500E-01  4.791898E-02  5.000000E-01  1.636882E-01  4.832144E-02  0.000000E+00  2.816944E-02  6.613203E-03  1.606478E-18 -4.616048E-01  0.000000E+00
  1.486750E-01  4.465596E-02  5.000000E-01  1.501781E-01  4.502547E-02  0.000000E+00  2.568563E-02  6.378972E-03  1.693762E-18 -3.711606E-01  0.000000E+00
  1.359210E-01  4.142749E-02  5.000000E-01  1.372953E-01  4.176439E-02  0.000000E+00  2.386772E-02  6.093514E-03  3.167211E-18 -3.081826E-01  0.000000E+00
  1.237890E-01  3.830260E-02  5.000000E-01  1.250408E-01  3.860795E-02  0.000000E+00  2.267379E-02  5.863425E-03  6.875310E-18 -2.655220E-01  0.000000E+00
  1.122730E-01  3.531288E-02  5.000000E-01  1.134085E-01  3.558803E-02  0.000000E+00  2.195314E-02  5.710413E-03  1.718815E-17 -2.377180E-01  0.000000E+00
  1.013710E-01  3.247181E-02  5.000000E-01  1.023964E-01  3.271827E-02  0.000000E+00  2.155277E-02  5.624091E-03  3.971324E-17 -2.210562E-01  0.000000E+00
  9.107400E-02  2.978163E-02  5.000000E-01  9.199537E-02  3.000093E-02  0.000000E+00  2.136423E-02  5.594037E-03  8.124420E-17 -2.129364E-01  0.000000E+00
  9.107400E-02  2.978163E-02  5.000000E-01  9.199537E-02  3.000093E-02  0.000000E+00  2.136423E-02  5.594037E-03  8.124420E-17 -2.129364E-01  0.000000E+00
  8.137660E-02  2.723700E-02  5.000000E-01  8.220004E-02  2.743059E-02  0.000000E+00  2.132245E-02  5.613574E-03  1.536392E-16 -2.119000E-01  0.000000E+00
  7.227050E-02  2.483144E-02  5.000000E-01  7.300198E-02  2.500074E-02  0.000000E+00  2.139282E-02  5.678036E-03  2.838094E-16 -2.173030E-01  0.000000E+00
  6.374670E-02  2.255812E-02  5.000000E-01  6.439210E-02  2.270446E-02  0.000000E+00  2.156000E-02  5.790947E-03  5.854461E-16 -2.278331E-01  0.000000E+00
  5.579720E-02  2.040762E-02  5.000000E-01  5.636231E-02  2.053224E-02  0.000000E+00  2.180323E-02  5.951049E-03  1.483603E-15 -2.411941E-01  0.000000E+00
  4.841260E-02  1.837444E-02  5.000000E-01  4.890314E-02  1.847853E-02  0.000000E+00  2.207700E-02  6.148330E-03  4.209975E-15 -2.540185E-01  0.000000E+00
  4.158390E-02  1.645285E-02  5.000000E-01  4.200547E-02  1.653754E-02  0.000000E+00  2.229246E-02  6.365976E-03  1.167504E-14 -2.632908E-01  0.000000E+00
  3.530370E-02  1.463551E-02  5.000000E-01  3.566185E-02  1.470184E-02  0.000000E+00  2.230953E-02  6.562529E-03  2.950570E-14 -2.715919E-01  0.000000E+00
  2.956270E-02  1.292000E-02  5.000000E-01  2.986287E-02  1.296901E-02  0.000000E+00  2.200875E-02  6.699685E-03  6.691691E-14 -2.899584E-01  0.000000E+00
  2.435310E-02  1.130296E-02  5.000000E-01  2.460066E-02  1.133563E-02  0.000000E+00  2.141377E-02  6.798107E-03  1.369269E-13 -3.346069E-01  0.000000E+00
  1.967110E-02  9.777608E-03  5.000000E-01  1.987138E-02  9.794880E-03  0.000000E+00  2.079393E-02  6.951101E-03  2.545940E-13 -4.189942E-01  0.000000E+00
  1.550860E-02  8.344562E-03  5.000000E-01  1.566684E-02  8.347362E-03  0.000000E+00  2.069890E-02  7.368385E-03  4.297600E-13 -5.398326E-01  0.000000E+00
  1.185930E-02  7.003563E-03  5.000000E-01  1.198069E-02  6.992820E-03  0.000000E+00  2.171430E-02  8.351615E-03  6.496284E-13 -6.722390E-01  0.000000E+00
  8.724160E-03  5.750168E-03  5.000000E-01  8.813884E-03  5.726768E-03  0.000000E+00  2.398523E-02  1.009672E-02  8.617131E-13 -7.889677E-01  0.000000E+00
  6.091130E-03  4.592094E-03  5.000000E-01  6.154263E-03  4.556998E-03  0.000000E+00  2.727282E-02  1.280792E-02  1.003891E-12 -8.725361E-01  0.000000E+00
  3.952840E-03  3.534506E-03  5.000000E-01  3.994379E-03  3.488729E-03  0.000000E+00  3.126709E-02  1.713158E-02  1.074480E-12 -9.051235E-01  0.000000E+00
  2.330070E-03  2.572043E-03  5.000000E-01  2.355220E-03  2.516547E-03  0.000000E+00  3.495781E-02  2.360543E-02  1.131606E-12 -8.798093E-01  0.000000E+00
  1.198080E-03  1.726009E-03  5.000000E-01  1.211798E-03  1.661968E-03  0.000000E+00  3.642573E-02  3.182454E-02  1.252258E-12 -8.060876E-01  0.000000E+00
  5.019560E-04  1.029718E-03  5.000000E-01  5.086443E-04  9.586457E-04  0.000000E+00  3.405587E-02  4.032690E-02  1.492786E-12 -7.350375E-01  0.000000E+00
  1.313430E-04  5.080476E-04  5.000000E-01  1.342884E-04  4.317069E-04  0.000000E+00  2.844574E-02  5.467738E-02  1.905094E-12 -7.401538E-01  0.000000E+00
  8.078190E-06  1.875473E-04  5.000000E-01  9.778778E-06  1.079698E-04  0.000000E+00  1.806128E-02  1.035286E-01  2.528243E-12 -8.047787E-01  0.000000E+00
 -1.602820E-06  8.065697E-05  5.000000E-01  0.000000E+00  0.000000E+00  0.000000E+00 -8.212072E-03  1.796525E-01  3.412256E-12 -6.934106E-01  0.000000E+00
  9.141860E-06 -2.739858E-05  5.000000E-01  1.085319E-05 -1.091468E-04  0.000000E+00 -4.439369E-02  1.676750E-01  4.296996E-12 -3.106350E-02  0.000000E+00