 Title = "ADflow Slice Data"
Variables =  "CoordinateX"  "CoordinateY"  "CoordinateZ"  "XoC"  "YoC"  "ZoC" "VelocityX" "VelocityY" "VelocityZ" "CoefPressure" "Mach" 
Zone T= "Slice_0001 None Absolute Regular z = 0.50000000"
 Nodes =          192  Elements=          184  ZONETYPE=FELINESEG
 DATAPACKING=POINT
  5.667600E-01 -1.512633E-02  5.000000E-01  5.724853E-01 -1.524042E-02  0.000000E+00  1.339858E-02  1.531344E-03  1.138648E-18  1.000502E-01  0.000000E+00
  5.873410E-01 -1.276107E-02  5.000000E-01  5.932741E-01 -1.285128E-02  0.000000E+00  1.289162E-02  1.480222E-03  9.028840E-19  1.231222E-01  0.000000E+00
  6.076580E-01 -1.043057E-02  5.000000E-01  6.137963E-01 -1.049724E-02  0.000000E+00  1.244739E-02  1.418382E-03 -5.625226E-19  1.451092E-01  0.000000E+00
  6.276600E-01 -8.167274E-03  5.000000E-01  6.340003E-01 -8.211086E-03  0.000000E+00  1.206345E-02  1.349978E-03 -2.249209E-18  1.654442E-01  0.000000E+00
  6.472970E-01 -5.995575E-03  5.000000E-01  6.538356E-01 -6.017455E-03  0.000000E+00  1.173018E-02  1.279907E-03 -2.383966E-18  1.837762E-01  0.000000E+00
  6.665260E-01 -3.927274E-03  5.000000E-01  6.732588E-01 -3.928267E-03  0.000000E+00  1.143718E-02  1.210682E-03 -5.368474E-19  2.003139E-01  0.000000E+00
  6.853050E-01 -1.971937E-03  5.000000E-01  6.922274E-01 -1.953183E-03  0.000000E+00  1.117812E-02  1.139778E-03  5.824504E-19  2.158491E-01  0.000000E+00
  7.035980E-01 -1.465325E-04  5.000000E-01  7.107052E-01 -1.093442E-04  0.000000E+00  1.094268E-02  1.064576E-03 -1.159471E-19  2.307274E-01  0.000000E+00
  7.213750E-01  1.537240E-03  5.000000E-01  7.286617E-01  1.591433E-03  0.000000E+00  1.070801E-02  9.854515E-04 -5.141697E-19  2.446259E-01  0.000000E+00
  7.386080E-01  3.075309E-03  5.000000E-01  7.460687E-01  3.145034E-03  0.000000E+00  1.044504E-02  9.044926E-04  1.061499E-18  2.574782E-01  0.000000E+00
  7.552750E-01  4.472925E-03  5.000000E-01  7.629040E-01  4.556764E-03  0.000000E+00  1.013560E-02  8.259127E-04  2.282370E-18  2.697179E-01  0.000000E+00
  7.713580E-01  5.743026E-03  5.000000E-01  7.791495E-01  5.839692E-03  0.000000E+00  9.792496E-03  7.515004E-04  9.401581E-19  2.819042E-01  0.000000E+00
  7.868410E-01  6.896645E-03  5.000000E-01  7.947888E-01  7.004961E-03  0.000000E+00  9.482741E-03  6.639145E-04  6.966408E-19  2.957611E-01  0.000000E+00
  8.017160E-01  7.873817E-03  5.000000E-01  8.098140E-01  7.992002E-03  0.000000E+00  9.307555E-03  5.402513E-04  9.839755E-19  3.116271E-01  0.000000E+00
  8.159740E-01  8.591138E-03  5.000000E-01  8.242160E-01  8.716567E-03  0.000000E+00  9.330674E-03  3.859547E-04  1.840202E-18  3.245333E-01  0.000000E+00
  8.296120E-01  9.030933E-03  5.000000E-01  8.379918E-01  9.160803E-03  0.000000E+00  9.555946E-03  2.186876E-04  1.212668E-18  3.296094E-01  0.000000E+00
  8.426300E-01  9.209434E-03  5.000000E-01  8.511412E-01  9.341107E-03  0.000000E+00  9.959995E-03  4.527172E-05 -8.655441E-20  3.267971E-01  0.000000E+00
  8.550290E-01  9.157989E-03  5.000000E-01  8.636654E-01  9.289142E-03  0.000000E+00  1.051458E-02 -1.332932E-04  6.148115E-19  3.180811E-01  0.000000E+00
  8.668160E-01  8.914309E-03  5.000000E-01  8.755715E-01  9.043002E-03  0.000000E+00  1.119075E-02 -3.158630E-04  2.996900E-21  3.048107E-01  0.000000E+00
  8.779950E-01  8.519645E-03  5.000000E-01  8.868634E-01  8.644351E-03  0.000000E+00  1.195868E-02 -4.998810E-04  4.061138E-19  2.875465E-01  0.000000E+00
  8.885730E-01  8.013259E-03  5.000000E-01  8.975482E-01  8.132851E-03  0.000000E+00  1.278907E-02 -6.827704E-04  1.053258E-18  2.668762E-01  0.000000E+00
  8.985610E-01  7.428514E-03  5.000000E-01  9.076371E-01  7.542202E-03  0.000000E+00  1.364933E-02 -8.577822E-04  3.409964E-19  2.433211E-01  0.000000E+00
  9.079670E-01  6.799181E-03  5.000000E-01  9.171381E-01  6.906514E-03  0.000000E+00  1.450018E-02 -1.012547E-03  5.752447E-19  2.173431E-01  0.000000E+00
  9.168010E-01  6.157763E-03  5.000000E-01  9.260613E-01  6.258618E-03  0.000000E+00  1.530399E-02 -1.137921E-03  1.691319E-18  1.899999E-01  0.000000E+00
  9.168010E-01  6.157763E-03  5.000000E-01  9.260613E-01  6.258618E-03  0.000000E+00  1.530399E-02 -1.137921E-03  1.691319E-18  1.899999E-01  0.000000E+00
  9.250730E-01  5.529061E-03  5.000000E-01  9.344168E-01  5.623566E-03  0.000000E+00  1.603759E-02 -1.235135E-03  1.228188E-18  1.628163E-01  0.000000E+00
  9.327940E-01  4.927314E-03  5.000000E-01  9.422158E-01  5.015742E-03  0.000000E+00  1.670045E-02 -1.315892E-03 -1.496301E-19  1.371059E-01  0.000000E+00
  9.399760E-01  4.355796E-03  5.000000E-01  9.494703E-01  4.438453E-03  0.000000E+00  1.730881E-02 -1.391729E-03 -5.614096E-19  1.131376E-01  0.000000E+00
  9.466320E-01  3.815212E-03  5.000000E-01  9.561935E-01  3.892409E-03  0.000000E+00  1.788282E-02 -1.467178E-03  2.401619E-18  9.017356E-02  0.000000E+00
  9.527730E-01  3.306380E-03  5.000000E-01  9.623965E-01  3.378439E-03  0.000000E+00  1.844718E-02 -1.548733E-03  8.395883E-18  6.767415E-02  0.000000E+00
  9.584110E-01  2.827162E-03  5.000000E-01  9.680915E-01  2.894381E-03  0.000000E+00  1.903457E-02 -1.647041E-03  7.588028E-18  4.540687E-02  0.000000E+00
  9.635570E-01  2.374324E-03  5.000000E-01  9.732895E-01  2.436970E-03  0.000000E+00  1.967890E-02 -1.767983E-03 -1.827742E-17  2.265395E-02  0.000000E+00
  9.682220E-01  1.946797E-03  5.000000E-01  9.780016E-01  2.005126E-03  0.000000E+00  2.041231E-02 -1.912194E-03 -7.567918E-17 -1.673207E-03  0.000000E+00
  9.724140E-01  1.545862E-03  5.000000E-01  9.822359E-01  1.600142E-03  0.000000E+00  2.128281E-02 -2.087681E-03 -8.353762E-17 -2.820517E-02  0.000000E+00
  9.761430E-01  1.171443E-03  5.000000E-01  9.860026E-01  1.221941E-03  0.000000E+00  2.237255E-02 -2.311605E-03  1.672085E-16 -5.739414E-02  0.000000E+00
  9.794160E-01  8.242724E-04  5.000000E-01  9.893086E-01  8.712647E-04  0.000000E+00  2.378352E-02 -2.597390E-03  7.796937E-16 -9.032133E-02  0.000000E+00
  9.822400E-01  5.074308E-04  5.000000E-01  9.921611E-01  5.512234E-04  0.000000E+00  2.556666E-02 -2.947230E-03  1.044213E-15 -1.284400E-01  0.000000E+00
  9.846200E-01  2.260661E-04  5.000000E-01  9.945652E-01  2.670172E-04  0.000000E+00  2.759096E-02 -3.347909E-03 -1.206738E-15 -1.720995E-01  0.000000E+00
  9.865620E-01 -1.453528E-05  5.000000E-01  9.965268E-01  2.398599E-05  0.000000E+00  2.941005E-02 -3.711643E-03 -7.928614E-15 -2.194092E-01  0.000000E+00
  9.880680E-01 -2.086055E-04  5.000000E-01  9.980480E-01 -1.720441E-04  0.000000E+00  2.987618E-02 -3.826780E-03 -1.375329E-14 -2.766191E-01  0.000000E+00
  9.891420E-01 -3.514236E-04  5.000000E-01  9.991328E-01 -3.163045E-04  0.000000E+00  2.812917E-02 -3.911243E-03  4.825754E-15 -3.435056E-01  0.000000E+00
  9.897860E-01 -4.389485E-04  5.000000E-01  9.997833E-01 -4.047133E-04  0.000000E+00  3.788717E-02 -4.013390E-03  7.764627E-14 -2.894038E-01  0.000000E+00
  9.900000E-01 -4.683021E-04  5.000000E-01  9.999995E-01 -4.343633E-04  0.000000E+00  2.618909E-02  5.267598E-03  7.079532E-14 -5.820325E-01  0.000000E+00
  9.900000E-01 -1.843752E-04  5.000000E-01  9.999995E-01 -1.475691E-04  0.000000E+00  1.229826E-03 -7.885378E-03  7.522173E-15 -8.088281E-01  0.000000E+00
  9.900000E-01  9.955168E-05  5.000000E-01  9.999995E-01  1.392251E-04  0.000000E+00 -4.469037E-04 -2.274891E-02  2.865429E-15 -6.283766E-01  0.000000E+00
  9.900000E-01  3.834785E-04  5.000000E-01  9.999995E-01  4.260193E-04  0.000000E+00 -1.436091E-04 -8.862943E-03  1.721837E-15 -6.283317E-01  0.000000E+00
  9.900000E-01  6.674054E-04  5.000000E-01  9.999995E-01  7.128135E-04  0.000000E+00  4.646722E-04 -5.229859E-03  2.505784E-15 -6.882137E-01  0.000000E+00
  9.900000E-01  9.513323E-04  5.000000E-01  9.999995E-01  9.996077E-04  0.000000E+00  6.797563E-03 -6.632531E-03  3.602975E-15 -6.299621E-01  0.000000E+00
  9.900000E-01  9.513323E-04  5.000000E-01  9.999995E-01  9.996077E-04  0.000000E+00  6.797563E-03 -6.632531E-03  3.602975E-15 -6.299621E-01  0.000000E+00
  9.897890E-01  1.017904E-03  5.000000E-01  9.997864E-01  1.066852E-03  0.000000E+00  9.016107E-03 -3.469708E-03  3.439247E-15 -5.524005E-01  0.000000E+00
  9.891540E-01  1.218674E-03  5.000000E-01  9.991450E-01  1.269650E-03  0.000000E+00  4.568044E-03 -1.351362E-03  2.180069E-15 -5.710031E-01  0.000000E+00
  9.880950E-01  1.555408E-03  5.000000E-01  9.980753E-01  1.609784E-03  0.000000E+00  3.025069E-03 -9.610134E-04  1.069495E-15 -5.705627E-01  0.000000E+00
  9.866100E-01  2.031334E-03  5.000000E-01  9.965753E-01  2.090516E-03  0.000000E+00  1.984044E-03 -6.498725E-04  4.435441E-16 -5.626623E-01  0.000000E+00
  9.846960E-01  2.650663E-03  5.000000E-01  9.946419E-01  2.716100E-03  0.000000E+00  9.961912E-04 -3.235550E-04  1.746239E-16 -5.590239E-01  0.000000E+00
  9.823490E-01  3.418253E-03  5.000000E-01  9.922712E-01  3.491441E-03  0.000000E+00  1.852510E-04 -5.927278E-05  6.587248E-17 -5.580437E-01  0.000000E+00
  9.795670E-01  4.338751E-03  5.000000E-01  9.894611E-01  4.421235E-03  0.000000E+00 -4.276014E-04  1.426559E-04  1.492143E-17 -5.582849E-01  0.000000E+00
  9.763420E-01  5.417937E-03  5.000000E-01  9.862036E-01  5.511320E-03  0.000000E+00 -8.714317E-04  2.932311E-04 -8.831426E-18 -5.597290E-01  0.000000E+00
  9.726710E-01  6.659547E-03  5.000000E-01  9.824955E-01  6.765469E-03  0.000000E+00 -1.170546E-03  3.976766E-04 -1.452234E-17 -5.622624E-01  0.000000E+00
  9.685460E-01  8.066757E-03  5.000000E-01  9.783288E-01  8.186890E-03  0.000000E+00 -1.342220E-03  4.594737E-04 -1.065588E-17 -5.654658E-01  0.000000E+00
  9.639600E-01  9.641712E-03  5.000000E-01  9.736965E-01  9.777751E-03  0.000000E+00 -1.403080E-03  4.831843E-04 -5.030483E-18 -5.688314E-01  0.000000E+00
  9.589060E-01  1.138656E-02  5.000000E-01  9.685915E-01  1.154022E-02  0.000000E+00 -1.373525E-03  4.750743E-04 -1.813096E-18 -5.718832E-01  0.000000E+00
  9.533750E-01  1.330248E-02  5.000000E-01  9.630046E-01  1.347549E-02  0.000000E+00 -1.279408E-03  4.434664E-04 -7.785698E-19 -5.742576E-01  0.000000E+00
  9.473580E-01  1.538823E-02  5.000000E-01  9.569269E-01  1.558230E-02  0.000000E+00 -1.150550E-03  3.985073E-04 -6.651024E-19 -5.757690E-01  0.000000E+00
  9.408450E-01  1.764047E-02  5.000000E-01  9.503481E-01  1.785729E-02  0.000000E+00 -1.017158E-03  3.508934E-04 -3.981706E-19 -5.764466E-01  0.000000E+00
  9.338260E-01  2.005392E-02  5.000000E-01  9.432582E-01  2.029511E-02  0.000000E+00 -9.059301E-04  3.101191E-04 -1.267191E-20 -5.765187E-01  0.000000E+00
  9.262910E-01  2.262013E-02  5.000000E-01  9.356471E-01  2.288723E-02  0.000000E+00 -8.374428E-04  2.832138E-04  9.807885E-21 -5.763376E-01  0.000000E+00
  9.182290E-01  2.532627E-02  5.000000E-01  9.275037E-01  2.562071E-02  0.000000E+00 -8.256027E-04  2.742604E-04  8.891517E-19 -5.762739E-01  0.000000E+00
  9.096280E-01  2.815465E-02  5.000000E-01  9.188158E-01  2.847765E-02  0.000000E+00 -8.780957E-04  2.845014E-04 -1.247437E-20 -5.766882E-01  0.000000E+00
  9.004770E-01  3.108178E-02  5.000000E-01  9.095724E-01  3.143434E-02  0.000000E+00 -9.967534E-04  3.125614E-04 -2.190151E-18 -5.778956E-01  0.000000E+00
  8.907650E-01  3.407673E-02  5.000000E-01  8.997623E-01  3.445954E-02  0.000000E+00 -1.178797E-03  3.541283E-04 -3.257977E-18 -5.799819E-01  0.000000E+00
  8.804800E-01  3.709812E-02  5.000000E-01  8.893735E-01  3.751144E-02  0.000000E+00 -1.417416E-03  4.015477E-04 -2.810314E-18 -5.828471E-01  0.000000E+00
  8.696090E-01  4.009017E-02  5.000000E-01  8.783927E-01  4.053371E-02  0.000000E+00 -1.698367E-03  4.453860E-04 -2.584656E-18 -5.864267E-01  0.000000E+00
  8.696090E-01  4.009017E-02  5.000000E-01  8.783927E-01  4.053371E-02  0.000000E+00 -1.698367E-03  4.453860E-04 -2.584656E-18 -5.864267E-01  0.000000E+00
  8.581400E-01  4.298084E-02  5.000000E-01  8.668079E-01  4.345357E-02  0.000000E+00 -2.001635E-03  4.767198E-04 -1.928156E-18 -5.897376E-01  0.000000E+00
  8.460600E-01  4.568596E-02  5.000000E-01  8.546059E-01  4.618600E-02  0.000000E+00 -2.309445E-03  4.854165E-04 -5.459698E-19 -5.905803E-01  0.000000E+00
  8.333640E-01  4.812568E-02  5.000000E-01  8.417817E-01  4.865036E-02  0.000000E+00 -2.566985E-03  4.509428E-04  9.896061E-19 -5.921187E-01  0.000000E+00
  8.200460E-01  5.022444E-02  5.000000E-01  8.283292E-01  5.077032E-02  0.000000E+00 -2.541745E-03  3.451292E-04  8.482391E-19 -6.135535E-01  0.000000E+00
  8.061050E-01  5.191486E-02  5.000000E-01  8.142474E-01  5.247781E-02  0.000000E+00 -1.653360E-03  1.626771E-04 -3.984852E-19 -6.841314E-01  0.000000E+00
  7.915460E-01  5.317124E-02  5.000000E-01  7.995413E-01  5.374688E-02  0.000000E+00  9.800659E-04 -5.183160E-05 -2.167134E-19 -8.100033E-01  0.000000E+00
  7.763770E-01  5.403286E-02  5.000000E-01  7.842191E-01  5.461720E-02  0.000000E+00  5.971280E-03 -2.161149E-04  9.094638E-19 -9.513852E-01  0.000000E+00
  7.606070E-01  5.456908E-02  5.000000E-01  7.682899E-01  5.515884E-02  0.000000E+00  1.258801E-02 -2.332210E-04  8.868495E-19 -1.050089E+00  0.000000E+00
  7.442510E-01  5.478720E-02  5.000000E-01  7.517687E-01  5.537916E-02  0.000000E+00  1.844057E-02 -4.654216E-05 -3.897936E-18 -1.081733E+00  0.000000E+00
  7.273250E-01  5.470503E-02  5.000000E-01  7.346718E-01  5.529616E-02  0.000000E+00  2.145463E-02  2.540529E-04 -1.012329E-17 -1.067564E+00  0.000000E+00
  7.098490E-01  5.437493E-02  5.000000E-01  7.170193E-01  5.496272E-02  0.000000E+00  2.168487E-02  4.855085E-04 -1.357721E-17 -1.042613E+00  0.000000E+00
  6.918480E-01  5.389279E-02  5.000000E-01  6.988365E-01  5.447572E-02  0.000000E+00  2.054691E-02  5.362579E-04 -1.393344E-17 -1.031489E+00  0.000000E+00
  6.733520E-01  5.340852E-02  5.000000E-01  6.801537E-01  5.398655E-02  0.000000E+00  1.934077E-02  3.956336E-04 -1.142076E-17 -1.044927E+00  0.000000E+00
  6.543930E-01  5.312136E-02  5.000000E-01  6.610032E-01  5.369650E-02  0.000000E+00  1.876320E-02  1.290263E-04 -8.220446E-18 -1.079481E+00  0.000000E+00
  6.350090E-01  5.315082E-02  5.000000E-01  6.414235E-01  5.372625E-02  0.000000E+00  1.904111E-02 -1.466176E-04 -5.330364E-18 -1.119821E+00  0.000000E+00
  6.152440E-01  5.342970E-02  5.000000E-01  6.214589E-01  5.400795E-02  0.000000E+00  1.996811E-02 -3.478700E-04 -4.064816E-18 -1.151452E+00  0.000000E+00
  5.951420E-01  5.384815E-02  5.000000E-01  6.011539E-01  5.443062E-02  0.000000E+00  2.109009E-02 -4.382711E-04 -5.645288E-18 -1.167422E+00  0.000000E+00
  5.747530E-01  5.427593E-02  5.000000E-01  5.805590E-01  5.486272E-02  0.000000E+00  2.203961E-02 -3.824122E-04 -6.864612E-18 -1.165270E+00  0.000000E+00
  5.541290E-01  5.456849E-02  5.000000E-01  5.597267E-01  5.515824E-02  0.000000E+00  2.264767E-02 -1.688002E-04 -6.475958E-18 -1.146429E+00  0.000000E+00
  5.333260E-01  5.458840E-02  5.000000E-01  5.387136E-01  5.517835E-02  0.000000E+00  2.285303E-02  1.303947E-04 -6.540225E-18 -1.118287E+00  0.000000E+00
  5.124010E-01  5.432498E-02  5.000000E-01  5.175773E-01  5.491227E-02  0.000000E+00  2.270604E-02  4.089172E-04 -6.271550E-18 -1.090365E+00  0.000000E+00
  4.914140E-01  5.382821E-02  5.000000E-01  4.963783E-01  5.441048E-02  0.000000E+00  2.239000E-02  6.228531E-04 -6.076901E-18 -1.068063E+00  0.000000E+00
  4.704230E-01  5.315381E-02  5.000000E-01  4.751754E-01  5.372927E-02  0.000000E+00  2.208343E-02  7.703660E-04 -6.659745E-18 -1.053425E+00  0.000000E+00
  1.696960E-04 -4.808959E-04  5.000000E-01  1.730287E-04 -4.470844E-04  0.000000E+00 -6.437105E-02  9.281537E-02 -6.623577E-14  5.410761E-01  0.000000E+00
  8.054360E-04 -9.779931E-04  5.000000E-01  8.151890E-04 -9.492016E-04  0.000000E+00 -4.693107E-02  3.285389E-02 -5.119716E-14  1.106935E+00  0.000000E+00
  1.973980E-03 -1.584726E-03  5.000000E-01  1.995534E-03 -1.562062E-03  0.000000E+00 -2.104594E-02  1.047346E-02 -2.822302E-14  1.176633E+00  0.000000E+00
  3.614630E-03 -2.299053E-03  5.000000E-01  3.652753E-03 -2.283603E-03  0.000000E+00 -4.049346E-03  1.769658E-03 -9.849109E-15  1.152887E+00  0.000000E+00
  5.721210E-03 -3.129370E-03  5.000000E-01  5.780607E-03 -3.122305E-03  0.000000E+00  5.026058E-03 -1.864779E-03 -3.033851E-16  1.122504E+00  0.000000E+00
  8.297500E-03 -4.073170E-03  5.000000E-01  8.382914E-03 -4.075636E-03  0.000000E+00  9.335019E-03 -3.267398E-03  2.312911E-15  1.078142E+00  0.000000E+00
  1.136560E-02 -5.110826E-03  5.000000E-01  1.148200E-02 -5.123772E-03  0.000000E+00  1.110262E-02 -3.617509E-03  1.812096E-15  1.023697E+00  0.000000E+00
  1.493280E-02 -6.231085E-03  5.000000E-01  1.508522E-02 -6.255344E-03  0.000000E+00  1.169733E-02 -3.582333E-03  7.607346E-16  9.691815E-01  0.000000E+00
  1.899460E-02 -7.442254E-03  5.000000E-01  1.918804E-02 -7.478744E-03  0.000000E+00  1.195288E-02 -3.511855E-03  1.040983E-16  9.184965E-01  0.000000E+00
  2.354800E-02 -8.760381E-03  5.000000E-01  2.378743E-02 -8.810183E-03  0.000000E+00  1.228642E-02 -3.503385E-03 -1.110792E-16  8.686338E-01  0.000000E+00
  2.860130E-02 -1.018099E-02  5.000000E-01  2.889176E-02 -1.024514E-02  0.000000E+00  1.281657E-02 -3.541865E-03 -1.017823E-16  8.169479E-01  0.000000E+00
  3.416500E-02 -1.169302E-02  5.000000E-01  3.451165E-02 -1.177244E-02  0.000000E+00  1.352481E-02 -3.608752E-03 -4.296583E-17  7.646634E-01  0.000000E+00
  4.024810E-02 -1.328733E-02  5.000000E-01  4.065618E-02 -1.338285E-02  0.000000E+00  1.435245E-02 -3.684878E-03 -5.544117E-18  7.126911E-01  0.000000E+00
  4.686030E-02 -1.495166E-02  5.000000E-01  4.733516E-02 -1.506399E-02  0.000000E+00  1.523513E-02 -3.750456E-03  5.605123E-18  6.608145E-01  0.000000E+00
  5.401090E-02 -1.667440E-02  5.000000E-01  5.455797E-02 -1.680412E-02  0.000000E+00  1.612612E-02 -3.797133E-03  5.217777E-18  6.091013E-01  0.000000E+00
  6.170850E-02 -1.844696E-02  5.000000E-01  6.233331E-02 -1.859459E-02  0.000000E+00  1.699988E-02 -3.816623E-03  3.404224E-18  5.571783E-01  0.000000E+00
  6.996310E-02 -2.025512E-02  5.000000E-01  7.067127E-02 -2.042100E-02  0.000000E+00  1.784270E-02 -3.796467E-03  7.464908E-19  5.043417E-01  0.000000E+00
  7.878500E-02 -2.207933E-02  5.000000E-01  7.958226E-02 -2.226364E-02  0.000000E+00  1.865153E-02 -3.733081E-03 -6.971843E-19  4.507869E-01  0.000000E+00
  8.818390E-02 -2.390055E-02  5.000000E-01  8.907608E-02 -2.410325E-02  0.000000E+00  1.942788E-02 -3.626587E-03  1.350644E-18  3.969452E-01  0.000000E+00
  9.816930E-02 -2.569637E-02  5.000000E-01  9.916232E-02 -2.591720E-02  0.000000E+00  2.016646E-02 -3.472369E-03  1.267702E-18  3.428729E-01  0.000000E+00
  1.087500E-01 -2.744002E-02  5.000000E-01  1.098499E-01 -2.767846E-02  0.000000E+00  2.085139E-02 -3.266985E-03 -5.839536E-19  2.889855E-01  0.000000E+00
  1.199340E-01 -2.910432E-02  5.000000E-01  1.211468E-01 -2.935957E-02  0.000000E+00  2.144828E-02 -3.005445E-03 -2.435976E-19  2.359773E-01  0.000000E+00
  1.317280E-01 -3.065734E-02  5.000000E-01  1.330599E-01 -3.092827E-02  0.000000E+00  2.189710E-02 -2.678898E-03  9.855854E-19  1.846828E-01  0.000000E+00
  1.441380E-01 -3.206184E-02  5.000000E-01  1.455952E-01 -3.234696E-02  0.000000E+00  2.212730E-02 -2.287178E-03  1.433903E-18  1.368675E-01  0.000000E+00
  1.441380E-01 -3.206184E-02  5.000000E-01  1.455952E-01 -3.234696E-02  0.000000E+00  2.212730E-02 -2.287178E-03  1.433903E-18  1.368675E-01  0.000000E+00
  1.571670E-01 -3.328144E-02  5.000000E-01  1.587558E-01 -3.357888E-02  0.000000E+00  2.208786E-02 -1.843699E-03  2.006420E-18  9.508662E-02  0.000000E+00
  1.708170E-01 -3.428123E-02  5.000000E-01  1.725437E-01 -3.458876E-02  0.000000E+00  2.178757E-02 -1.377720E-03  2.004685E-18  6.205482E-02  0.000000E+00
  1.850860E-01 -3.503729E-02  5.000000E-01  1.869568E-01 -3.535246E-02  0.000000E+00  2.132850E-02 -9.417224E-04 -1.608979E-19  4.012188E-02  0.000000E+00
  1.999720E-01 -3.555773E-02  5.000000E-01  2.019931E-01 -3.587815E-02  0.000000E+00  2.088889E-02 -6.036354E-04 -7.328885E-19  3.004933E-02  0.000000E+00
  2.154670E-01 -3.590713E-02  5.000000E-01  2.176446E-01 -3.623109E-02  0.000000E+00  2.061006E-02 -3.899361E-04  1.107338E-18  2.754351E-02  0.000000E+00
  2.315610E-01 -3.615477E-02  5.000000E-01  2.339011E-01 -3.648122E-02  0.000000E+00  2.047953E-02 -2.394721E-04  1.091841E-18  2.263864E-02  0.000000E+00
  2.482400E-01 -3.629217E-02  5.000000E-01  2.507486E-01 -3.662001E-02  0.000000E+00  2.040374E-02 -8.672000E-05  8.818641E-19  9.910736E-03  0.000000E+00
  2.654840E-01 -3.629748E-02  5.000000E-01  2.681667E-01 -3.662538E-02  0.000000E+00  2.031714E-02  8.290327E-05  1.660949E-18 -7.512524E-03  0.000000E+00
  2.832720E-01 -3.614568E-02  5.000000E-01  2.861343E-01 -3.647204E-02  0.000000E+00  2.018463E-02  2.667500E-04  1.067529E-18 -2.465405E-02  0.000000E+00
  3.015770E-01 -3.581625E-02  5.000000E-01  3.046242E-01 -3.613929E-02  0.000000E+00  1.999337E-02  4.551809E-04  1.482514E-18 -3.816767E-02  0.000000E+00
  3.203660E-01 -3.529708E-02  5.000000E-01  3.236030E-01 -3.561487E-02  0.000000E+00  1.974365E-02  6.378134E-04  1.708659E-18 -4.698131E-02  0.000000E+00
  3.396030E-01 -3.458430E-02  5.000000E-01  3.430342E-01 -3.489489E-02  0.000000E+00  1.943888E-02  8.088233E-04  7.985666E-19 -5.155516E-02  0.000000E+00
  3.592490E-01 -3.367620E-02  5.000000E-01  3.628786E-01 -3.397763E-02  0.000000E+00  1.907943E-02  9.673891E-04 -7.920044E-20 -5.276075E-02  0.000000E+00
  3.792580E-01 -3.257064E-02  5.000000E-01  3.830897E-01 -3.286090E-02  0.000000E+00  1.866493E-02  1.112806E-03 -5.229411E-19 -5.094532E-02  0.000000E+00
  3.995810E-01 -3.126821E-02  5.000000E-01  4.036179E-01 -3.154531E-02  0.000000E+00  1.819646E-02  1.242554E-03  1.294656E-19 -4.588498E-02  0.000000E+00
  4.201670E-01 -2.977360E-02  5.000000E-01  4.244118E-01 -3.003561E-02  0.000000E+00  1.767492E-02  1.354648E-03  1.196157E-18 -3.735371E-02  0.000000E+00
  4.409600E-01 -2.809345E-02  5.000000E-01  4.454148E-01 -2.833849E-02  0.000000E+00  1.710221E-02  1.448072E-03  1.502991E-19 -2.536949E-02  0.000000E+00
  4.619030E-01 -2.623628E-02  5.000000E-01  4.665693E-01 -2.646257E-02  0.000000E+00  1.648753E-02  1.520101E-03 -1.764635E-18 -9.950330E-03  0.000000E+00
  4.829360E-01 -2.421997E-02  5.000000E-01  4.878147E-01 -2.442589E-02  0.000000E+00  1.584767E-02  1.567673E-03 -4.733073E-19  8.711818E-03  0.000000E+00
  5.039990E-01 -2.206922E-02  5.000000E-01  5.090904E-01 -2.225343E-02  0.000000E+00  1.520175E-02  1.590112E-03 -9.320358E-19  2.997099E-02  0.000000E+00
  5.250310E-01 -1.981469E-02  5.000000E-01  5.303348E-01 -1.997613E-02  0.000000E+00  1.456795E-02  1.589089E-03 -1.842770E-18  5.289669E-02  0.000000E+00
  5.459710E-01 -1.748970E-02  5.000000E-01  5.514863E-01 -1.762765E-02  0.000000E+00  1.396184E-02  1.568424E-03  5.024304E-22  7.648536E-02  0.000000E+00
  5.667600E-01 -1.512633E-02  5.000000E-01  5.724853E-01 -1.524042E-02  0.000000E+00  1.339858E-02  1.531344E-03  1.138648E-18  1.000502E-01  0.000000E+00
  4.704230E-01  5.315381E-02  5.000000E-01  4.751754E-01  5.372927E-02  0.000000E+00  2.208343E-02  7.703660E-04 -6.659745E-18 -1.053425E+00  0.000000E+00
  4.494880E-01  5.236229E-02  5.000000E-01  4.540289E-01  5.292976E-02  0.000000E+00  2.188810E-02  8.586108E-04 -8.300830E-18 -1.046633E+00  0.000000E+00
  4.286690E-01  5.151410E-02  5.000000E-01  4.329997E-01  5.207300E-02  0.000000E+00  2.185684E-02  9.138814E-04 -9.395957E-18 -1.045300E+00  0.000000E+00
  4.080230E-01  5.063017E-02  5.000000E-01  4.121452E-01  5.118015E-02  0.000000E+00  2.199752E-02  9.752592E-04 -9.867630E-18 -1.045426E+00  0.000000E+00
  3.876050E-01  4.969605E-02  5.000000E-01  3.915210E-01  5.023659E-02  0.000000E+00  2.224892E-02  1.060466E-03 -1.148471E-17 -1.044420E+00  0.000000E+00
  3.674690E-01  4.869883E-02  5.000000E-01  3.711816E-01  4.922930E-02  0.000000E+00  2.252367E-02  1.166529E-03 -1.233653E-17 -1.041615E+00  0.000000E+00
  3.476650E-01  4.762892E-02  5.000000E-01  3.511776E-01  4.814858E-02  0.000000E+00  2.276663E-02  1.289176E-03 -1.294251E-17 -1.037061E+00  0.000000E+00
  3.282390E-01  4.647899E-02  5.000000E-01  3.315555E-01  4.698704E-02  0.000000E+00  2.296139E-02  1.425849E-03 -1.328637E-17 -1.031083E+00  0.000000E+00
  3.092330E-01  4.524389E-02  5.000000E-01  3.123575E-01  4.573947E-02  0.000000E+00  2.311063E-02  1.572064E-03 -1.276976E-17 -1.024254E+00  0.000000E+00
  2.906860E-01  4.392582E-02  5.000000E-01  2.936232E-01  4.440809E-02  0.000000E+00  2.322336E-02  1.723209E-03 -1.255615E-17 -1.017148E+00  0.000000E+00
  2.726330E-01  4.252961E-02  5.000000E-01  2.753879E-01  4.299778E-02  0.000000E+00  2.331031E-02  1.878309E-03 -1.205112E-17 -1.010021E+00  0.000000E+00
  2.551020E-01  4.106019E-02  5.000000E-01  2.576799E-01  4.151352E-02  0.000000E+00  2.337857E-02  2.038114E-03 -1.141548E-17 -1.002892E+00  0.000000E+00
  2.381210E-01  3.952317E-02  5.000000E-01  2.405274E-01  3.996098E-02  0.000000E+00  2.343362E-02  2.205720E-03 -1.196434E-17 -9.956422E-01  0.000000E+00
  2.217090E-01  3.792064E-02  5.000000E-01  2.239496E-01  3.834226E-02  0.000000E+00  2.347555E-02  2.382106E-03 -1.213402E-17 -9.886105E-01  0.000000E+00
  2.058840E-01  3.625513E-02  5.000000E-01  2.079648E-01  3.665994E-02  0.000000E+00  2.348508E-02  2.545635E-03 -1.264142E-17 -9.840584E-01  0.000000E+00
  1.906600E-01  3.455464E-02  5.000000E-01  1.925871E-01  3.494227E-02  0.000000E+00  2.345514E-02  2.659578E-03 -1.429121E-17 -9.854353E-01  0.000000E+00
  1.760460E-01  3.287029E-02  5.000000E-01  1.778255E-01  3.324091E-02  0.000000E+00  2.345390E-02  2.728698E-03 -1.924328E-17 -9.932761E-01  0.000000E+00
  1.620500E-01  3.122663E-02  5.000000E-01  1.636881E-01  3.158066E-02  0.000000E+00  2.357404E-02  2.795597E-03 -2.941436E-17 -1.004799E+00  0.000000E+00
  1.486750E-01  2.962605E-02  5.000000E-01  1.501781E-01  2.996391E-02  0.000000E+00  2.383683E-02  2.890235E-03 -4.529566E-17 -1.017056E+00  0.000000E+00
  1.359210E-01  2.806039E-02  5.000000E-01  1.372953E-01  2.838244E-02  0.000000E+00  2.419168E-02  3.020598E-03 -6.998206E-17 -1.028275E+00  0.000000E+00
  1.237890E-01  2.652084E-02  5.000000E-01  1.250407E-01  2.682734E-02  0.000000E+00  2.456732E-02  3.184055E-03 -1.102853E-16 -1.037796E+00  0.000000E+00
  1.122730E-01  2.499783E-02  5.000000E-01  1.134084E-01  2.528894E-02  0.000000E+00  2.491169E-02  3.375418E-03 -1.785793E-16 -1.045711E+00  0.000000E+00
  1.013710E-01  2.348562E-02  5.000000E-01  1.023964E-01  2.376147E-02  0.000000E+00  2.520172E-02  3.588201E-03 -2.948276E-16 -1.052625E+00  0.000000E+00
  9.107400E-02  2.198214E-02  5.000000E-01  9.199536E-02  2.224280E-02  0.000000E+00  2.544102E-02  3.821631E-03 -4.940692E-16 -1.059112E+00  0.000000E+00
  9.107400E-02  2.198214E-02  5.000000E-01  9.199536E-02  2.224280E-02  0.000000E+00  2.544102E-02  3.821631E-03 -4.940692E-16 -1.059112E+00  0.000000E+00
  8.137660E-02  2.048506E-02  5.000000E-01  8.220003E-02  2.073061E-02  0.000000E+00  2.563771E-02  4.074110E-03 -8.356474E-16 -1.065917E+00  0.000000E+00
  7.227050E-02  1.899674E-02  5.000000E-01  7.300197E-02  1.922725E-02  0.000000E+00  2.579627E-02  4.339743E-03 -1.425415E-15 -1.074053E+00  0.000000E+00
  6.374670E-02  1.752219E-02  5.000000E-01  6.439209E-02  1.773782E-02  0.000000E+00  2.592753E-02  4.619680E-03 -2.447408E-15 -1.084187E+00  0.000000E+00
  5.579720E-02  1.606467E-02  5.000000E-01  5.636231E-02  1.626557E-02  0.000000E+00  2.603209E-02  4.910105E-03 -4.207111E-15 -1.097226E+00  0.000000E+00
  4.841260E-02  1.463263E-02  5.000000E-01  4.890313E-02  1.481907E-02  0.000000E+00  2.610805E-02  5.205774E-03 -7.174915E-15 -1.114157E+00  0.000000E+00
  4.158390E-02  1.323382E-02  5.000000E-01  4.200547E-02  1.340614E-02  0.000000E+00  2.616050E-02  5.513138E-03 -1.197337E-14 -1.135370E+00  0.000000E+00
  3.530370E-02  1.187306E-02  5.000000E-01  3.566185E-02  1.203163E-02  0.000000E+00  2.617043E-02  5.826893E-03 -1.920158E-14 -1.161702E+00  0.000000E+00
  2.956270E-02  1.055981E-02  5.000000E-01  2.986287E-02  1.070512E-02  0.000000E+00  2.611063E-02  6.142237E-03 -2.898927E-14 -1.193818E+00  0.000000E+00
  2.435310E-02  9.300560E-03  5.000000E-01  2.460066E-02  9.433153E-03  0.000000E+00  2.594114E-02  6.471060E-03 -4.021239E-14 -1.231131E+00  0.000000E+00
  1.967110E-02  8.095781E-03  5.000000E-01  1.987137E-02  8.216207E-03  0.000000E+00  2.552756E-02  6.784035E-03 -4.979917E-14 -1.273952E+00  0.000000E+00
  1.550860E-02  6.952614E-03  5.000000E-01  1.566684E-02  7.061496E-03  0.000000E+00  2.469223E-02  7.032807E-03 -5.334746E-14 -1.322590E+00  0.000000E+00
  1.185930E-02  5.874711E-03  5.000000E-01  1.198068E-02  5.972707E-03  0.000000E+00  2.333781E-02  7.210217E-03 -4.756562E-14 -1.375202E+00  0.000000E+00
  8.724160E-03  4.858262E-03  5.000000E-01  8.813883E-03  4.945993E-03  0.000000E+00  2.159044E-02  7.343958E-03 -3.315304E-14 -1.431334E+00  0.000000E+00
  6.091130E-03  3.911475E-03  5.000000E-01  6.154263E-03  3.989644E-03  0.000000E+00  2.033828E-02  7.823289E-03 -1.635635E-14 -1.486396E+00  0.000000E+00
  3.952840E-03  3.037095E-03  5.000000E-01  3.994378E-03  3.106434E-03  0.000000E+00  2.115268E-02  9.739465E-03 -5.836639E-15 -1.523466E+00  0.000000E+00
  2.330070E-03  2.222372E-03  5.000000E-01  2.355220E-03  2.283483E-03  0.000000E+00  2.425669E-02  1.420381E-02 -5.318502E-15 -1.531059E+00  0.000000E+00
  1.198080E-03  1.485457E-03  5.000000E-01  1.211798E-03  1.539127E-03  0.000000E+00  2.761520E-02  2.140082E-02 -1.159359E-14 -1.519132E+00  0.000000E+00
  5.019560E-04  8.594490E-04  5.000000E-01  5.086442E-04  9.067965E-04  0.000000E+00  3.042102E-02  3.351215E-02 -2.022089E-14 -1.530614E+00  0.000000E+00
  1.313430E-04  3.762908E-04  5.000000E-01  1.342884E-04  4.187590E-04  0.000000E+00  3.506416E-02  7.035915E-02 -2.944683E-14 -1.565920E+00  0.000000E+00
  8.078190E-06  6.814465E-05  5.000000E-01  9.778777E-06  1.075009E-04  0.000000E+00  3.053903E-02  1.732757E-01 -4.087383E-14 -1.484688E+00  0.000000E+00
 -1.602820E-06 -3.828145E-05  5.000000E-01  0.000000E+00  0.000000E+00  0.000000E+00 -4.946841E-03  2.521486E-01 -5.237448E-14 -1.190807E+00  0.000000E+00
  9.141860E-06 -1.483275E-04  5.000000E-01  1.085319E-05 -1.111574E-04  0.000000E+00 -4.976546E-02  1.968032E-01 -6.341349E-14 -4.685874E-01  0.000000E+00