 Title = "ADflow Slice Data"
Variables =  "CoordinateX"  "CoordinateY"  "CoordinateZ"  "XoC"  "YoC"  "ZoC" "VelocityX" "VelocityY" "VelocityZ" "CoefPressure" "Mach" 
Zone T= "Slice_0001 None Absolute Regular z = 0.50000000"
 Nodes =          192  Elements=          184  ZONETYPE=FELINESEG
 DATAPACKING=POINT
  5.667600E-01 -1.185986E-04  5.000000E-01  5.724853E-01 -2.012687E-04  0.000000E+00 -1.410468E-03 -6.380203E-05  4.282144E-19  8.709654E-02  0.000000E+00
  5.873410E-01  7.165268E-04  5.000000E-01  5.932742E-01  6.422906E-04  0.000000E+00 -6.027098E-04 -2.375394E-05  7.387596E-19  1.141606E-01  0.000000E+00
  6.076580E-01  1.431878E-03  5.000000E-01  6.137963E-01  1.364866E-03  0.000000E+00  2.176250E-04  6.831106E-06  5.452533E-19  1.336950E-01  0.000000E+00
  6.276600E-01  2.069551E-03  5.000000E-01  6.340003E-01  2.008979E-03  0.000000E+00  1.022774E-03  3.184692E-05  8.837333E-19  1.460011E-01  0.000000E+00
  6.472970E-01  2.668110E-03  5.000000E-01  6.538357E-01  2.613583E-03  0.000000E+00  1.793197E-03  5.538718E-05 -6.336395E-19  1.521240E-01  0.000000E+00
  6.665260E-01  3.265664E-03  5.000000E-01  6.732589E-01  3.217172E-03  0.000000E+00  2.513306E-03  8.085020E-05 -3.318445E-19  1.539411E-01  0.000000E+00
  6.853050E-01  3.887158E-03  5.000000E-01  6.922275E-01  3.844942E-03  0.000000E+00  3.166892E-03  1.085832E-04  2.091335E-19  1.536169E-01  0.000000E+00
  7.035980E-01  4.534352E-03  5.000000E-01  7.107052E-01  4.498672E-03  0.000000E+00  3.734216E-03  1.365022E-04 -4.590087E-19  1.527826E-01  0.000000E+00
  7.213750E-01  5.203145E-03  5.000000E-01  7.286618E-01  5.174219E-03  0.000000E+00  4.194184E-03  1.624106E-04 -1.158929E-19  1.523286E-01  0.000000E+00
  7.386080E-01  5.888139E-03  5.000000E-01  7.460688E-01  5.866131E-03  0.000000E+00  4.531987E-03  1.851518E-04 -6.951925E-19  1.527872E-01  0.000000E+00
  7.552750E-01  6.586933E-03  5.000000E-01  7.629041E-01  6.571982E-03  0.000000E+00  4.747785E-03  2.053049E-04 -8.344610E-19  1.544496E-01  0.000000E+00
  7.713580E-01  7.301227E-03  5.000000E-01  7.791496E-01  7.293490E-03  0.000000E+00  4.862567E-03  2.222011E-04 -6.620200E-19  1.572981E-01  0.000000E+00
  7.868410E-01  8.029012E-03  5.000000E-01  7.947889E-01  8.028625E-03  0.000000E+00  4.926360E-03  2.244228E-04 -4.303340E-19  1.621446E-01  0.000000E+00
  8.017160E-01  8.691169E-03  5.000000E-01  8.098141E-01  8.697469E-03  0.000000E+00  5.012237E-03  1.970126E-04 -6.068092E-19  1.694194E-01  0.000000E+00
  8.159740E-01  9.179365E-03  5.000000E-01  8.242161E-01  9.190595E-03  0.000000E+00  5.180595E-03  1.408839E-04 -7.144313E-19  1.761423E-01  0.000000E+00
  8.296120E-01  9.453729E-03  5.000000E-01  8.379919E-01  9.467729E-03  0.000000E+00  5.457877E-03  6.637095E-05 -5.920500E-19  1.790097E-01  0.000000E+00
  8.426300E-01  9.513004E-03  5.000000E-01  8.511413E-01  9.527603E-03  0.000000E+00  5.848369E-03 -2.092941E-05 -3.166379E-19  1.775365E-01  0.000000E+00
  8.550290E-01  9.375586E-03  5.000000E-01  8.636655E-01  9.388798E-03  0.000000E+00  6.347643E-03 -1.196165E-04  3.961736E-19  1.723680E-01  0.000000E+00
  8.668160E-01  9.069830E-03  5.000000E-01  8.755716E-01  9.079954E-03  0.000000E+00  6.946001E-03 -2.287062E-04 -1.414386E-19  1.638355E-01  0.000000E+00
  8.779950E-01  8.630338E-03  5.000000E-01  8.868635E-01  8.636023E-03  0.000000E+00  7.629048E-03 -3.463269E-04 -1.210521E-19  1.520336E-01  0.000000E+00
  8.885730E-01  8.091605E-03  5.000000E-01  8.975483E-01  8.091850E-03  0.000000E+00  8.379536E-03 -4.703868E-04  3.792882E-19  1.372590E-01  0.000000E+00
  8.985610E-01  7.483563E-03  5.000000E-01  9.076372E-01  7.477667E-03  0.000000E+00  9.176368E-03 -5.958871E-04 -2.661325E-19  1.197882E-01  0.000000E+00
  9.079670E-01  6.837516E-03  5.000000E-01  9.171382E-01  6.825096E-03  0.000000E+00  9.993100E-03 -7.136758E-04 -9.321272E-19  9.984257E-02  0.000000E+00
  9.168010E-01  6.184175E-03  5.000000E-01  9.260614E-01  6.165156E-03  0.000000E+00  1.080273E-02 -8.161386E-04 -1.544977E-18  7.805788E-02  0.000000E+00
  9.168010E-01  6.184175E-03  5.000000E-01  9.260614E-01  6.165156E-03  0.000000E+00  1.080273E-02 -8.161386E-04 -1.544977E-18  7.805788E-02  0.000000E+00
  9.250730E-01  5.547028E-03  5.000000E-01  9.344169E-01  5.521575E-03  0.000000E+00  1.158573E-02 -9.026777E-04 -5.188140E-19  5.541163E-02  0.000000E+00
  9.327940E-01  4.939351E-03  5.000000E-01  9.422159E-01  4.907761E-03  0.000000E+00  1.233622E-02 -9.803523E-04 -1.878235E-18  3.285281E-02  0.000000E+00
  9.399760E-01  4.363714E-03  5.000000E-01  9.494704E-01  4.326311E-03  0.000000E+00  1.305963E-02 -1.056649E-03 -3.649233E-18  1.071152E-02  0.000000E+00
  9.466320E-01  3.820306E-03  5.000000E-01  9.561936E-01  3.777415E-03  0.000000E+00  1.376485E-02 -1.134460E-03 -2.450627E-18 -1.136928E-02  0.000000E+00
  9.527730E-01  3.309573E-03  5.000000E-01  9.623967E-01  3.261524E-03  0.000000E+00  1.446433E-02 -1.218342E-03 -2.371189E-18 -3.357476E-02  0.000000E+00
  9.584110E-01  2.829100E-03  5.000000E-01  9.680916E-01  2.776198E-03  0.000000E+00  1.517682E-02 -1.316283E-03 -2.457847E-18 -5.586332E-02  0.000000E+00
  9.635570E-01  2.375455E-03  5.000000E-01  9.732896E-01  2.317973E-03  0.000000E+00  1.592312E-02 -1.432829E-03 -4.136384E-18 -7.859805E-02  0.000000E+00
  9.682220E-01  1.947427E-03  5.000000E-01  9.780017E-01  1.885622E-03  0.000000E+00  1.672421E-02 -1.568372E-03 -5.192635E-18 -1.024322E-01  0.000000E+00
  9.724140E-01  1.546192E-03  5.000000E-01  9.822360E-01  1.480334E-03  0.000000E+00  1.761487E-02 -1.729119E-03 -6.616127E-18 -1.276179E-01  0.000000E+00
  9.761430E-01  1.171601E-03  5.000000E-01  9.860027E-01  1.101961E-03  0.000000E+00  1.865645E-02 -1.928448E-03 -1.037460E-17 -1.542450E-01  0.000000E+00
  9.794160E-01  8.243396E-04  5.000000E-01  9.893087E-01  7.511922E-04  0.000000E+00  1.991755E-02 -2.175528E-03 -1.385768E-17 -1.829335E-01  0.000000E+00
  9.822400E-01  5.074536E-04  5.000000E-01  9.921612E-01  4.311060E-04  0.000000E+00  2.140440E-02 -2.468292E-03 -1.567821E-17 -2.145282E-01  0.000000E+00
  9.846200E-01  2.260699E-04  5.000000E-01  9.945653E-01  1.468806E-04  0.000000E+00  2.295615E-02 -2.785575E-03 -1.319338E-17 -2.487216E-01  0.000000E+00
  9.865620E-01 -1.453790E-05  5.000000E-01  9.965269E-01 -9.615711E-05  0.000000E+00  2.412123E-02 -3.035276E-03 -6.878294E-18 -2.846064E-01  0.000000E+00
  9.880680E-01 -2.086091E-04  5.000000E-01  9.980481E-01 -2.921882E-04  0.000000E+00  2.386655E-02 -3.067158E-03 -1.947559E-17 -3.284252E-01  0.000000E+00
  9.891420E-01 -3.514265E-04  5.000000E-01  9.991329E-01 -4.364480E-04  0.000000E+00  2.205967E-02 -3.126126E-03 -1.226115E-16 -3.693514E-01  0.000000E+00
  9.897860E-01 -4.389506E-04  5.000000E-01  9.997835E-01 -5.248560E-04  0.000000E+00  2.983730E-02 -3.053457E-03 -3.996443E-16 -3.086136E-01  0.000000E+00
  9.900000E-01 -4.683039E-04  5.000000E-01  9.999996E-01 -5.545057E-04  0.000000E+00  2.056340E-02  4.857873E-03 -5.947757E-16 -5.581484E-01  0.000000E+00
  9.900000E-01 -1.843769E-04  5.000000E-01  9.999996E-01 -2.677113E-04  0.000000E+00  8.282419E-04 -7.015220E-03 -3.464821E-16 -7.424804E-01  0.000000E+00
  9.900000E-01  9.955008E-05  5.000000E-01  9.999996E-01  1.908305E-05  0.000000E+00 -3.494680E-04 -1.969730E-02 -2.837088E-17 -5.833630E-01  0.000000E+00
  9.900000E-01  3.834771E-04  5.000000E-01  9.999996E-01  3.058774E-04  0.000000E+00 -1.050014E-04 -7.344989E-03  2.752985E-17 -5.903994E-01  0.000000E+00
  9.900000E-01  6.674041E-04  5.000000E-01  9.999996E-01  5.926718E-04  0.000000E+00  4.045465E-04 -4.352082E-03  4.589507E-17 -6.450153E-01  0.000000E+00
  9.900000E-01  9.513311E-04  5.000000E-01  9.999996E-01  8.794662E-04  0.000000E+00  5.728739E-03 -5.684242E-03  1.164799E-16 -5.933382E-01  0.000000E+00
  9.900000E-01  9.513311E-04  5.000000E-01  9.999996E-01  8.794662E-04  0.000000E+00  5.728739E-03 -5.684242E-03  1.164799E-16 -5.933382E-01  0.000000E+00
  9.897890E-01  1.017902E-03  5.000000E-01  9.997865E-01  9.467099E-04  0.000000E+00  7.532352E-03 -2.943278E-03  1.222095E-16 -5.256497E-01  0.000000E+00
  9.891540E-01  1.218672E-03  5.000000E-01  9.991451E-01  1.149507E-03  0.000000E+00  3.874827E-03 -1.138532E-03  5.588417E-17 -5.444994E-01  0.000000E+00
  9.880950E-01  1.555405E-03  5.000000E-01  9.980754E-01  1.489641E-03  0.000000E+00  2.793879E-03 -8.871065E-04  1.434080E-17 -5.449681E-01  0.000000E+00
  9.866100E-01  2.031332E-03  5.000000E-01  9.965754E-01  1.970374E-03  0.000000E+00  2.102658E-03 -6.876049E-04 -2.339082E-19 -5.376843E-01  0.000000E+00
  9.846960E-01  2.650669E-03  5.000000E-01  9.946420E-01  2.595965E-03  0.000000E+00  1.385691E-03 -4.503839E-04 -1.133712E-18 -5.338927E-01  0.000000E+00
  9.823490E-01  3.418278E-03  5.000000E-01  9.922713E-01  3.371327E-03  0.000000E+00  7.623999E-04 -2.492381E-04 -1.039318E-18 -5.320633E-01  0.000000E+00
  9.795670E-01  4.338822E-03  5.000000E-01  9.894613E-01  4.301167E-03  0.000000E+00  2.564014E-04 -8.493954E-05 -1.492857E-18 -5.308929E-01  0.000000E+00
  9.763420E-01  5.418105E-03  5.000000E-01  9.862037E-01  5.391350E-03  0.000000E+00 -1.566425E-04  5.284024E-05 -4.869257E-19 -5.305457E-01  0.000000E+00
  9.726710E-01  6.659899E-03  5.000000E-01  9.824956E-01  6.645685E-03  0.000000E+00 -4.962822E-04  1.687624E-04  2.366300E-19 -5.311677E-01  0.000000E+00
  9.685460E-01  8.067440E-03  5.000000E-01  9.783289E-01  8.067440E-03  0.000000E+00 -7.730497E-04  2.647788E-04 -5.574055E-19 -5.326668E-01  0.000000E+00
  9.639600E-01  9.642960E-03  5.000000E-01  9.736966E-01  9.658872E-03  0.000000E+00 -9.914961E-04  3.416083E-04 -1.638665E-18 -5.348854E-01  0.000000E+00
  9.589060E-01  1.138874E-02  5.000000E-01  9.685916E-01  1.142228E-02  0.000000E+00 -1.152926E-03  3.989766E-04 -1.099028E-18 -5.376303E-01  0.000000E+00
  9.533750E-01  1.330615E-02  5.000000E-01  9.630047E-01  1.335906E-02  0.000000E+00 -1.258494E-03  4.364972E-04 -1.769103E-19 -5.406750E-01  0.000000E+00
  9.473580E-01  1.539422E-02  5.000000E-01  9.569270E-01  1.546822E-02  0.000000E+00 -1.311649E-03  4.547490E-04  2.855542E-19 -5.437691E-01  0.000000E+00
  9.408450E-01  1.765003E-02  5.000000E-01  9.503482E-01  1.774681E-02  0.000000E+00 -1.319380E-03  4.558745E-04 -8.199269E-20 -5.466565E-01  0.000000E+00
  9.338260E-01  2.006884E-02  5.000000E-01  9.432583E-01  2.019004E-02  0.000000E+00 -1.292094E-03  4.434285E-04 -5.975403E-19 -5.491254E-01  0.000000E+00
  9.262910E-01  2.264302E-02  5.000000E-01  9.356472E-01  2.279022E-02  0.000000E+00 -1.242260E-03  4.217069E-04 -4.694201E-19 -5.510573E-01  0.000000E+00
  9.182290E-01  2.536087E-02  5.000000E-01  9.275038E-01  2.553552E-02  0.000000E+00 -1.182685E-03  3.951238E-04  3.323810E-19 -5.524359E-01  0.000000E+00
  9.096280E-01  2.820630E-02  5.000000E-01  9.188159E-01  2.840968E-02  0.000000E+00 -1.125120E-03  3.677080E-04  1.459015E-18 -5.533353E-01  0.000000E+00
  9.004770E-01  3.115808E-02  5.000000E-01  9.095725E-01  3.139127E-02  0.000000E+00 -1.079308E-03  3.425643E-04  1.619089E-18 -5.539042E-01  0.000000E+00
  8.907650E-01  3.418846E-02  5.000000E-01  8.997624E-01  3.445225E-02  0.000000E+00 -1.052372E-03  3.214091E-04  9.656882E-19 -5.543321E-01  0.000000E+00
  8.804800E-01  3.726055E-02  5.000000E-01  8.893736E-01  3.755538E-02  0.000000E+00 -1.048534E-03  3.043410E-04 -5.279910E-19 -5.548110E-01  0.000000E+00
  8.696090E-01  4.032498E-02  5.000000E-01  8.783928E-01  4.065075E-02  0.000000E+00 -1.068960E-03  2.899670E-04 -8.470540E-19 -5.555262E-01  0.000000E+00
  8.696090E-01  4.032498E-02  5.000000E-01  8.783928E-01  4.065075E-02  0.000000E+00 -1.068960E-03  2.899670E-04 -8.470540E-19 -5.555262E-01  0.000000E+00
  8.581400E-01  4.331871E-02  5.000000E-01  8.668080E-01  4.367471E-02  0.000000E+00 -1.111865E-03  2.759993E-04  9.356398E-19 -5.566382E-01  0.000000E+00
  8.460600E-01  4.617038E-02  5.000000E-01  8.546060E-01  4.655518E-02  0.000000E+00 -1.173533E-03  2.604282E-04  4.235724E-19 -5.582088E-01  0.000000E+00
  8.333640E-01  4.881826E-02  5.000000E-01  8.417817E-01  4.922981E-02  0.000000E+00 -1.249953E-03  2.420783E-04 -9.215996E-19 -5.602575E-01  0.000000E+00
  8.200460E-01  5.121245E-02  5.000000E-01  8.283293E-01  5.164818E-02  0.000000E+00 -1.337997E-03  2.207253E-04 -1.109290E-19 -5.628385E-01  0.000000E+00
  8.061050E-01  5.332099E-02  5.000000E-01  8.142475E-01  5.377801E-02  0.000000E+00 -1.436429E-03  1.989746E-04  6.738102E-19 -5.659541E-01  0.000000E+00
  7.915460E-01  5.516538E-02  5.000000E-01  7.995414E-01  5.564102E-02  0.000000E+00 -1.547268E-03  1.832736E-04  5.472904E-19 -5.694787E-01  0.000000E+00
  7.763770E-01  5.684304E-02  5.000000E-01  7.842192E-01  5.733563E-02  0.000000E+00 -1.675773E-03  1.789980E-04  7.550284E-19 -5.732984E-01  0.000000E+00
  7.606070E-01  5.847185E-02  5.000000E-01  7.682900E-01  5.898089E-02  0.000000E+00 -1.825765E-03  1.829539E-04  1.832117E-18 -5.777346E-01  0.000000E+00
  7.442510E-01  6.006746E-02  5.000000E-01  7.517688E-01  6.059261E-02  0.000000E+00 -1.993412E-03  1.885031E-04  1.368460E-18 -5.832263E-01  0.000000E+00
  7.273250E-01  6.162788E-02  5.000000E-01  7.346719E-01  6.216878E-02  0.000000E+00 -2.165649E-03  1.937925E-04 -3.969941E-19 -5.898671E-01  0.000000E+00
  7.098490E-01  6.314929E-02  5.000000E-01  7.170194E-01  6.370556E-02  0.000000E+00 -2.325253E-03  1.993178E-04 -7.565187E-19 -5.968803E-01  0.000000E+00
  6.918480E-01  6.462351E-02  5.000000E-01  6.988366E-01  6.519467E-02  0.000000E+00 -2.452569E-03  2.005351E-04 -6.846764E-19 -6.033493E-01  0.000000E+00
  6.733520E-01  6.604292E-02  5.000000E-01  6.801538E-01  6.662841E-02  0.000000E+00 -2.478285E-03  1.844024E-04 -2.397864E-18 -6.158927E-01  0.000000E+00
  6.543930E-01  6.740446E-02  5.000000E-01  6.610033E-01  6.800370E-02  0.000000E+00 -2.156846E-03  1.367594E-04 -6.894555E-18 -6.569603E-01  0.000000E+00
  6.350090E-01  6.870259E-02  5.000000E-01  6.414236E-01  6.931494E-02  0.000000E+00 -9.374361E-04  4.438498E-05 -8.123798E-18 -7.524949E-01  0.000000E+00
  6.152440E-01  6.991958E-02  5.000000E-01  6.214590E-01  7.054423E-02  0.000000E+00  1.973003E-03 -1.116715E-04  3.043673E-17 -8.989335E-01  0.000000E+00
  5.951420E-01  7.103036E-02  5.000000E-01  6.011539E-01  7.166623E-02  0.000000E+00  7.060730E-03 -3.343162E-04  1.995857E-16 -1.051485E+00  0.000000E+00
  5.747530E-01  7.200875E-02  5.000000E-01  5.805590E-01  7.265449E-02  0.000000E+00  1.352374E-02 -5.613903E-04  6.084587E-16 -1.158464E+00  0.000000E+00
  5.541290E-01  7.283154E-02  5.000000E-01  5.597268E-01  7.348559E-02  0.000000E+00  1.911347E-02 -6.527600E-04  1.255733E-15 -1.200647E+00  0.000000E+00
  5.333260E-01  7.345661E-02  5.000000E-01  5.387137E-01  7.411697E-02  0.000000E+00  2.193841E-02 -4.466751E-04  2.003672E-15 -1.187420E+00  0.000000E+00
  5.124010E-01  7.368528E-02  5.000000E-01  5.175773E-01  7.434796E-02  0.000000E+00  2.183989E-02  9.754519E-05  2.636944E-15 -1.131775E+00  0.000000E+00
  4.914140E-01  7.324399E-02  5.000000E-01  4.963784E-01  7.390221E-02  0.000000E+00  1.963320E-02  8.254081E-04  2.855217E-15 -1.040214E+00  0.000000E+00
  4.704230E-01  7.186074E-02  5.000000E-01  4.751754E-01  7.250499E-02  0.000000E+00  1.615435E-02  1.488773E-03  2.460802E-15 -9.163354E-01  0.000000E+00
  1.696960E-04 -3.382668E-04  5.000000E-01  1.730288E-04 -4.231553E-04  0.000000E+00 -5.456944E-02  7.464185E-02  4.234025E-12  8.720914E-01  0.000000E+00
  8.054360E-04 -7.523906E-04  5.000000E-01  8.151891E-04 -8.414613E-04  0.000000E+00 -3.288285E-02  1.940320E-02  3.077875E-12  1.223325E+00  0.000000E+00
  1.973980E-03 -1.202783E-03  5.000000E-01  1.995534E-03 -1.296402E-03  0.000000E+00 -7.717005E-03  2.971034E-03  1.556924E-12  1.140790E+00  0.000000E+00
  3.614630E-03 -1.688838E-03  5.000000E-01  3.652753E-03 -1.787366E-03  0.000000E+00  6.540196E-03 -1.704692E-03  4.334320E-13  1.045959E+00  0.000000E+00
  5.721210E-03 -2.213206E-03  5.000000E-01  5.780607E-03 -2.317029E-03  0.000000E+00  1.303622E-02 -2.981024E-03 -7.752642E-14  9.778419E-01  0.000000E+00
  8.297500E-03 -2.766720E-03  5.000000E-01  8.382915E-03 -2.876133E-03  0.000000E+00  1.556242E-02 -3.067059E-03 -1.679460E-13  9.093201E-01  0.000000E+00
  1.136560E-02 -3.322347E-03  5.000000E-01  1.148200E-02 -3.437372E-03  0.000000E+00  1.616489E-02 -2.695833E-03 -1.016996E-13  8.402312E-01  0.000000E+00
  1.493280E-02 -3.864692E-03  5.000000E-01  1.508523E-02 -3.985194E-03  0.000000E+00  1.604181E-02 -2.280388E-03 -3.195722E-14  7.806600E-01  0.000000E+00
  1.899460E-02 -4.399536E-03  5.000000E-01  1.918805E-02 -4.525440E-03  0.000000E+00  1.589086E-02 -1.989413E-03  5.591039E-16  7.325261E-01  0.000000E+00
  2.354800E-02 -4.940099E-03  5.000000E-01  2.378743E-02 -5.071461E-03  0.000000E+00  1.595581E-02 -1.797454E-03  6.851155E-15  6.896860E-01  0.000000E+00
  2.860130E-02 -5.480143E-03  5.000000E-01  2.889176E-02 -5.616960E-03  0.000000E+00  1.618807E-02 -1.633279E-03  4.192461E-15  6.481335E-01  0.000000E+00
  3.416500E-02 -6.008680E-03  5.000000E-01  3.451165E-02 -6.150834E-03  0.000000E+00  1.647506E-02 -1.472219E-03  1.300915E-15  6.095588E-01  0.000000E+00
  4.024810E-02 -6.518109E-03  5.000000E-01  4.065618E-02 -6.665408E-03  0.000000E+00  1.673533E-02 -1.309361E-03  3.631369E-17  5.753730E-01  0.000000E+00
  4.686030E-02 -6.999487E-03  5.000000E-01  4.733516E-02 -7.151647E-03  0.000000E+00  1.692262E-02 -1.144080E-03 -1.999855E-16  5.454156E-01  0.000000E+00
  5.401090E-02 -7.445937E-03  5.000000E-01  5.455797E-02 -7.602606E-03  0.000000E+00  1.702155E-02 -9.834135E-04 -1.209387E-16  5.196111E-01  0.000000E+00
  6.170850E-02 -7.854821E-03  5.000000E-01  6.233331E-02 -8.015619E-03  0.000000E+00  1.702968E-02 -8.291443E-04 -3.583767E-17  4.975694E-01  0.000000E+00
  6.996310E-02 -8.220318E-03  5.000000E-01  7.067128E-02 -8.384807E-03  0.000000E+00  1.694230E-02 -6.770514E-04 -1.849966E-18  4.788156E-01  0.000000E+00
  7.878500E-02 -8.534526E-03  5.000000E-01  7.958227E-02 -8.702189E-03  0.000000E+00  1.675592E-02 -5.295640E-04  3.278426E-18  4.638028E-01  0.000000E+00
  8.818390E-02 -8.793177E-03  5.000000E-01  8.907609E-02 -8.963452E-03  0.000000E+00  1.646598E-02 -3.922995E-04  1.514679E-18  4.531732E-01  0.000000E+00
  9.816930E-02 -8.993454E-03  5.000000E-01  9.916233E-02 -9.165751E-03  0.000000E+00  1.605902E-02 -2.692459E-04  1.232249E-19  4.471542E-01  0.000000E+00
  1.087500E-01 -9.134982E-03  5.000000E-01  1.098499E-01 -9.308709E-03  0.000000E+00  1.551582E-02 -1.675065E-04  6.659638E-19  4.460953E-01  0.000000E+00
  1.199340E-01 -9.225549E-03  5.000000E-01  1.211468E-01 -9.400190E-03  0.000000E+00  1.481863E-02 -9.560911E-05  4.839575E-19  4.502667E-01  0.000000E+00
  1.317280E-01 -9.281182E-03  5.000000E-01  1.330599E-01 -9.456385E-03  0.000000E+00  1.396476E-02 -6.106368E-05  1.709759E-19  4.595190E-01  0.000000E+00
  1.441380E-01 -9.330683E-03  5.000000E-01  1.455953E-01 -9.506386E-03  0.000000E+00  1.299450E-02 -7.388481E-05 -6.501296E-19  4.735921E-01  0.000000E+00
  1.441380E-01 -9.330683E-03  5.000000E-01  1.455953E-01 -9.506386E-03  0.000000E+00  1.299450E-02 -7.388481E-05 -6.501296E-19  4.735921E-01  0.000000E+00
  1.571670E-01 -9.427983E-03  5.000000E-01  1.587558E-01 -9.604668E-03  0.000000E+00  1.201749E-02 -1.456709E-04 -2.018983E-18  4.916975E-01  0.000000E+00
  1.708170E-01 -9.661063E-03  5.000000E-01  1.725437E-01 -9.840102E-03  0.000000E+00  1.122334E-02 -2.929912E-04 -2.827364E-18  5.116978E-01  0.000000E+00
  1.850860E-01 -1.016874E-02  5.000000E-01  1.869568E-01 -1.035290E-02  0.000000E+00  1.087279E-02 -5.569688E-04 -1.558793E-18  5.295990E-01  0.000000E+00
  1.999720E-01 -1.116181E-02  5.000000E-01  2.019931E-01 -1.135601E-02  0.000000E+00  1.126907E-02 -1.030175E-03  4.537042E-19  5.394540E-01  0.000000E+00
  2.154670E-01 -1.292939E-02  5.000000E-01  2.176446E-01 -1.314143E-02  0.000000E+00  1.269285E-02 -1.831293E-03  5.098135E-19  5.301445E-01  0.000000E+00
  2.315610E-01 -1.567008E-02  5.000000E-01  2.339011E-01 -1.590980E-02  0.000000E+00  1.533439E-02 -3.015425E-03  9.585221E-20  4.845028E-01  0.000000E+00
  2.482400E-01 -1.930820E-02  5.000000E-01  2.507486E-01 -1.958467E-02  0.000000E+00  1.925213E-02 -4.534061E-03 -1.240975E-18  3.911657E-01  0.000000E+00
  2.654840E-01 -2.360624E-02  5.000000E-01  2.681667E-01 -2.392611E-02  0.000000E+00  2.416135E-02 -6.091274E-03 -1.435871E-18  2.454941E-01  0.000000E+00
  2.832720E-01 -2.813602E-02  5.000000E-01  2.861344E-01 -2.850164E-02  0.000000E+00  2.899516E-02 -6.903108E-03 -1.111149E-18  4.080857E-02  0.000000E+00
  3.015770E-01 -3.224844E-02  5.000000E-01  3.046242E-01 -3.265559E-02  0.000000E+00  3.145894E-02 -5.865017E-03 -3.304830E-18 -2.243652E-01  0.000000E+00
  3.203660E-01 -3.507956E-02  5.000000E-01  3.236030E-01 -3.551531E-02  0.000000E+00  2.823768E-02 -2.765691E-03 -7.204480E-18 -5.135105E-01  0.000000E+00
  3.396030E-01 -3.565397E-02  5.000000E-01  3.430343E-01 -3.609551E-02  0.000000E+00  1.869802E-02  1.748918E-04 -8.349518E-18 -7.031000E-01  0.000000E+00
  3.592490E-01 -3.372593E-02  5.000000E-01  3.628787E-01 -3.414800E-02  0.000000E+00  7.669419E-03  8.239000E-04 -3.830896E-18 -6.732364E-01  0.000000E+00
  3.792580E-01 -2.985586E-02  5.000000E-01  3.830897E-01 -3.023884E-02  0.000000E+00  1.265190E-04 -3.278260E-05  1.123961E-18 -4.695563E-01  0.000000E+00
  3.995810E-01 -2.473096E-02  5.000000E-01  4.036180E-01 -2.506219E-02  0.000000E+00 -3.270039E-03 -8.274004E-04  8.703098E-19 -2.551328E-01  0.000000E+00
  4.201670E-01 -1.912384E-02  5.000000E-01  4.244119E-01 -1.939844E-02  0.000000E+00 -4.191282E-03 -1.081249E-03 -3.894017E-19 -1.379439E-01  0.000000E+00
  4.409600E-01 -1.387419E-02  5.000000E-01  4.454149E-01 -1.409577E-02  0.000000E+00 -4.197885E-03 -9.615476E-04  2.373217E-19 -1.051001E-01  0.000000E+00
  4.619030E-01 -9.659416E-03  5.000000E-01  4.665694E-01 -9.838438E-03  0.000000E+00 -3.999506E-03 -7.191910E-04 -6.907531E-19 -9.286964E-02  0.000000E+00
  4.829360E-01 -6.461845E-03  5.000000E-01  4.878148E-01 -6.608576E-03  0.000000E+00 -3.736522E-03 -4.988413E-04 -1.746893E-18 -6.727707E-02  0.000000E+00
  5.039990E-01 -4.100570E-03  5.000000E-01  5.090905E-01 -4.223454E-03  0.000000E+00 -3.358652E-03 -3.278229E-04 -1.414401E-18 -2.905677E-02  0.000000E+00
  5.250310E-01 -2.385841E-03  5.000000E-01  5.303349E-01 -2.491408E-03  0.000000E+00 -2.830677E-03 -2.032652E-04 -1.701159E-18  1.301459E-02  0.000000E+00
  5.459710E-01 -1.121429E-03  5.000000E-01  5.514864E-01 -1.214226E-03  0.000000E+00 -2.167875E-03 -1.194431E-04 -1.553485E-18  5.284842E-02  0.000000E+00
  5.667600E-01 -1.185986E-04  5.000000E-01  5.724853E-01 -2.012687E-04  0.000000E+00 -1.410468E-03 -6.380203E-05  4.282144E-19  8.709654E-02  0.000000E+00
  4.704230E-01  7.186074E-02  5.000000E-01  4.751754E-01  7.250499E-02  0.000000E+00  1.615435E-02  1.488773E-03  2.460802E-15 -9.163354E-01  0.000000E+00
  4.494880E-01  6.927449E-02  5.000000E-01  4.540290E-01  6.989262E-02  0.000000E+00  1.209580E-02  1.840856E-03  1.661685E-15 -7.756728E-01  0.000000E+00
  4.286690E-01  6.527210E-02  5.000000E-01  4.329997E-01  6.584981E-02  0.000000E+00  7.908187E-03  1.650685E-03  8.824117E-16 -6.636135E-01  0.000000E+00
  4.080230E-01  6.022753E-02  5.000000E-01  4.121452E-01  6.075429E-02  0.000000E+00  3.852663E-03  9.338823E-04  3.613476E-16 -6.286062E-01  0.000000E+00
  3.876050E-01  5.500779E-02  5.000000E-01  3.915210E-01  5.548184E-02  0.000000E+00  2.006747E-04  7.660047E-05  9.793177E-17 -6.699655E-01  0.000000E+00
  3.674690E-01  5.044643E-02  5.000000E-01  3.711817E-01  5.087442E-02  0.000000E+00 -2.801162E-03 -4.757200E-04 -5.469617E-18 -7.450508E-01  0.000000E+00
  3.476650E-01  4.730464E-02  5.000000E-01  3.511777E-01  4.770089E-02  0.000000E+00 -4.923526E-03 -4.720499E-04 -3.650744E-17 -8.195589E-01  0.000000E+00
  3.282390E-01  4.625396E-02  5.000000E-01  3.315555E-01  4.663961E-02  0.000000E+00 -5.890385E-03  2.035984E-05 -4.233362E-17 -9.033554E-01  0.000000E+00
  3.092330E-01  4.751255E-02  5.000000E-01  3.123576E-01  4.791090E-02  0.000000E+00 -5.092111E-03  4.569927E-04 -3.610660E-17 -1.034764E+00  0.000000E+00
  2.906860E-01  5.013509E-02  5.000000E-01  2.936233E-01  5.055993E-02  0.000000E+00 -1.266653E-03  1.642980E-04 -2.098079E-17 -1.210264E+00  0.000000E+00
  2.726330E-01  5.308728E-02  5.000000E-01  2.753879E-01  5.354193E-02  0.000000E+00  6.683507E-03 -9.145163E-04 -9.833282E-18 -1.358212E+00  0.000000E+00
  2.551020E-01  5.558185E-02  5.000000E-01  2.576799E-01  5.606170E-02  0.000000E+00  1.761276E-02 -1.833427E-03 -1.733475E-17 -1.405264E+00  0.000000E+00
  2.381210E-01  5.710278E-02  5.000000E-01  2.405274E-01  5.759798E-02  0.000000E+00  2.751025E-02 -1.288454E-03 -3.035939E-17 -1.333072E+00  0.000000E+00
  2.217090E-01  5.737039E-02  5.000000E-01  2.239497E-01  5.786830E-02  0.000000E+00  3.316359E-02  9.361351E-04 -2.811846E-17 -1.166936E+00  0.000000E+00
  2.058840E-01  5.628871E-02  5.000000E-01  2.079648E-01  5.677569E-02  0.000000E+00  3.469923E-02  3.712333E-03 -1.327772E-17 -9.524619E-01  0.000000E+00
  1.906600E-01  5.406117E-02  5.000000E-01  1.925871E-01  5.452566E-02  0.000000E+00  3.348890E-02  5.715788E-03 -2.021103E-18 -7.449084E-01  0.000000E+00
  1.760460E-01  5.117045E-02  5.000000E-01  1.778255E-01  5.160575E-02  0.000000E+00  3.087199E-02  6.547982E-03  2.831847E-19 -5.776110E-01  0.000000E+00
  1.620500E-01  4.797523E-02  5.000000E-01  1.636882E-01  4.837826E-02  0.000000E+00  2.802511E-02  6.621813E-03  1.036741E-18 -4.526798E-01  0.000000E+00
  1.486750E-01  4.469528E-02  5.000000E-01  1.501781E-01  4.506519E-02  0.000000E+00  2.559791E-02  6.385612E-03  2.488851E-18 -3.630623E-01  0.000000E+00
  1.359210E-01  4.145492E-02  5.000000E-01  1.372953E-01  4.179210E-02  0.000000E+00  2.381362E-02  6.099117E-03 -8.995567E-20 -3.006694E-01  0.000000E+00
  1.237890E-01  3.832167E-02  5.000000E-01  1.250408E-01  3.862721E-02  0.000000E+00  2.263661E-02  5.867408E-03 -8.785810E-20 -2.584285E-01  0.000000E+00
  1.122730E-01  3.532607E-02  5.000000E-01  1.134085E-01  3.560136E-02  0.000000E+00  2.192487E-02  5.712796E-03  1.053818E-17 -2.309354E-01  0.000000E+00
  1.013710E-01  3.248087E-02  5.000000E-01  1.023964E-01  3.272743E-02  0.000000E+00  2.153101E-02  5.625511E-03  3.111002E-17 -2.144686E-01  0.000000E+00
  9.107400E-02  2.978781E-02  5.000000E-01  9.199537E-02  3.000716E-02  0.000000E+00  2.134839E-02  5.595161E-03  6.862438E-17 -2.063430E-01  0.000000E+00
  9.107400E-02  2.978781E-02  5.000000E-01  9.199537E-02  3.000716E-02  0.000000E+00  2.134839E-02  5.595161E-03  6.862438E-17 -2.063430E-01  0.000000E+00
  8.137660E-02  2.724116E-02  5.000000E-01  8.220004E-02  2.743479E-02  0.000000E+00  2.131129E-02  5.614609E-03  1.352055E-16 -2.049865E-01  0.000000E+00
  7.227050E-02  2.483420E-02  5.000000E-01  7.300198E-02  2.500353E-02  0.000000E+00  2.138349E-02  5.678534E-03  2.491922E-16 -2.097596E-01  0.000000E+00
  6.374670E-02  2.255992E-02  5.000000E-01  6.439210E-02  2.270628E-02  0.000000E+00  2.154947E-02  5.790190E-03  4.920537E-16 -2.196581E-01  0.000000E+00
  5.579720E-02  2.040878E-02  5.000000E-01  5.636231E-02  2.053341E-02  0.000000E+00  2.179347E-02  5.949562E-03  1.186335E-15 -2.330378E-01  0.000000E+00
  4.841260E-02  1.837517E-02  5.000000E-01  4.890314E-02  1.847927E-02  0.000000E+00  2.208436E-02  6.150822E-03  3.353716E-15 -2.471800E-01  0.000000E+00
  4.158390E-02  1.645329E-02  5.000000E-01  4.200547E-02  1.653798E-02  0.000000E+00  2.235658E-02  6.384643E-03  9.595246E-15 -2.589416E-01  0.000000E+00
  3.530370E-02  1.463577E-02  5.000000E-01  3.566185E-02  1.470210E-02  0.000000E+00  2.249096E-02  6.617257E-03  2.524415E-14 -2.692285E-01  0.000000E+00
  2.956270E-02  1.292015E-02  5.000000E-01  2.986287E-02  1.296915E-02  0.000000E+00  2.236253E-02  6.810440E-03  5.931722E-14 -2.860055E-01  0.000000E+00
  2.435310E-02  1.130303E-02  5.000000E-01  2.460066E-02  1.133571E-02  0.000000E+00  2.193789E-02  6.968150E-03  1.245025E-13 -3.229576E-01  0.000000E+00
  1.967110E-02  9.777644E-03  5.000000E-01  1.987138E-02  9.794916E-03  0.000000E+00  2.137520E-02  7.145967E-03  2.350818E-13 -3.946251E-01  0.000000E+00
  1.550860E-02  8.344576E-03  5.000000E-01  1.566684E-02  8.347375E-03  0.000000E+00  2.110669E-02  7.508200E-03  3.999359E-13 -5.033140E-01  0.000000E+00
  1.185930E-02  7.003566E-03  5.000000E-01  1.198069E-02  6.992823E-03  0.000000E+00  2.170775E-02  8.340650E-03  6.077875E-13 -6.305072E-01  0.000000E+00
  8.724160E-03  5.750166E-03  5.000000E-01  8.813884E-03  5.726765E-03  0.000000E+00  2.350636E-02  9.890424E-03  8.119877E-13 -7.506340E-01  0.000000E+00
  6.091130E-03  4.592090E-03  5.000000E-01  6.154263E-03  4.556993E-03  0.000000E+00  2.653938E-02  1.246680E-02  9.564202E-13 -8.422008E-01  0.000000E+00
  3.952840E-03  3.534501E-03  5.000000E-01  3.994379E-03  3.488724E-03  0.000000E+00  3.062954E-02  1.679444E-02  1.039476E-12 -8.820163E-01  0.000000E+00
  2.330070E-03  2.572039E-03  5.000000E-01  2.355220E-03  2.516542E-03  0.000000E+00  3.464843E-02  2.341284E-02  1.113653E-12 -8.604770E-01  0.000000E+00
  1.198080E-03  1.726007E-03  5.000000E-01  1.211798E-03  1.661965E-03  0.000000E+00  3.645210E-02  3.186670E-02  1.249390E-12 -7.870396E-01  0.000000E+00
  5.019560E-04  1.029717E-03  5.000000E-01  5.086443E-04  9.586436E-04  0.000000E+00  3.427754E-02  4.061588E-02  1.498934E-12 -7.132076E-01  0.000000E+00
  1.313430E-04  5.080474E-04  5.000000E-01  1.342884E-04  4.317058E-04  0.000000E+00  2.861511E-02  5.492723E-02  1.910556E-12 -7.133823E-01  0.000000E+00
  8.078190E-06  1.875478E-04  5.000000E-01  9.778778E-06  1.079695E-04  0.000000E+00  1.803048E-02  1.025608E-01  2.516240E-12 -7.762621E-01  0.000000E+00
 -1.602820E-06  8.065782E-05  5.000000E-01  0.000000E+00  0.000000E+00  0.000000E+00 -8.111056E-03  1.772628E-01  3.371333E-12 -6.694568E-01  0.000000E+00
  9.141860E-06 -2.739740E-05  5.000000E-01  1.085319E-05 -1.091465E-04  0.000000E+00 -4.394096E-02  1.657638E-01  4.234961E-12 -1.400117E-02  0.000000E+00