 Title = "ADflow Slice Data"
Variables =  "CoordinateX"  "CoordinateY"  "CoordinateZ"  "XoC"  "YoC"  "ZoC" "VelocityX" "VelocityY" "VelocityZ" "CoefPressure" "Mach" 
Zone T= "Slice_0001 None Absolute Regular z = 0.50000000"
 Nodes =          192  Elements=          184  ZONETYPE=FELINESEG
 DATAPACKING=POINT
  5.667600E-01 -1.512086E-02  5.000000E-01  5.724853E-01 -1.523482E-02  0.000000E+00  1.341165E-02  1.530170E-03 -1.397902E-16  9.988544E-02  0.000000E+00
  5.873410E-01 -1.275923E-02  5.000000E-01  5.932741E-01 -1.284934E-02  0.000000E+00  1.290496E-02  1.479741E-03 -1.017289E-16  1.228709E-01  0.000000E+00
  6.076580E-01 -1.043147E-02  5.000000E-01  6.137963E-01 -1.049808E-02  0.000000E+00  1.245999E-02  1.418372E-03 -8.140251E-17  1.448281E-01  0.000000E+00
  6.276600E-01 -8.170114E-03  5.000000E-01  6.340003E-01 -8.213881E-03  0.000000E+00  1.207467E-02  1.350277E-03 -6.141855E-17  1.651604E-01  0.000000E+00
  6.472970E-01 -5.999628E-03  5.000000E-01  6.538356E-01 -6.021475E-03  0.000000E+00  1.173965E-02  1.280409E-03 -5.212682E-17  1.835030E-01  0.000000E+00
  6.665260E-01 -3.931880E-03  5.000000E-01  6.732588E-01 -3.932845E-03  0.000000E+00  1.144467E-02  1.211310E-03 -4.484426E-17  2.000628E-01  0.000000E+00
  6.853050E-01 -1.976541E-03  5.000000E-01  6.922274E-01 -1.957760E-03  0.000000E+00  1.118362E-02  1.140457E-03 -4.255444E-17  2.156322E-01  0.000000E+00
  7.035980E-01 -1.507539E-04  5.000000E-01  7.107052E-01 -1.135337E-04  0.000000E+00  1.094637E-02  1.065235E-03 -4.801697E-17  2.305532E-01  0.000000E+00
  7.213750E-01  1.533619E-03  5.000000E-01  7.286617E-01  1.587849E-03  0.000000E+00  1.071015E-02  9.860426E-04 -5.225278E-17  2.444954E-01  0.000000E+00
  7.386080E-01  3.072368E-03  5.000000E-01  7.460687E-01  3.142138E-03  0.000000E+00  1.044595E-02  9.049882E-04 -5.385474E-17  2.573865E-01  0.000000E+00
  7.552750E-01  4.470649E-03  5.000000E-01  7.629040E-01  4.554540E-03  0.000000E+00  1.013563E-02  8.263014E-04 -5.688794E-17  2.696579E-01  0.000000E+00
  7.713580E-01  5.741331E-03  5.000000E-01  7.791495E-01  5.838055E-03  0.000000E+00  9.791957E-03  7.517829E-04 -6.146534E-17  2.818684E-01  0.000000E+00
  7.868410E-01  6.895412E-03  5.000000E-01  7.947888E-01  7.003790E-03  0.000000E+00  9.481902E-03  6.641067E-04 -6.436256E-17  2.957419E-01  0.000000E+00
  8.017160E-01  7.872925E-03  5.000000E-01  8.098140E-01  7.991175E-03  0.000000E+00  9.306605E-03  5.403839E-04 -6.304180E-17  3.116174E-01  0.000000E+00
  8.159740E-01  8.590493E-03  5.000000E-01  8.242160E-01  8.715990E-03  0.000000E+00  9.329725E-03  3.860569E-04 -5.884726E-17  3.245281E-01  0.000000E+00
  8.296120E-01  9.030467E-03  5.000000E-01  8.379918E-01  9.160407E-03  0.000000E+00  9.555054E-03  2.187760E-04 -5.498327E-17  3.296065E-01  0.000000E+00
  8.426300E-01  9.209097E-03  5.000000E-01  8.511412E-01  9.340841E-03  0.000000E+00  9.959180E-03  4.535359E-05 -4.943735E-17  3.267958E-01  0.000000E+00
  8.550290E-01  9.157744E-03  5.000000E-01  8.636654E-01  9.288970E-03  0.000000E+00  1.051384E-02 -1.332155E-04 -4.528728E-17  3.180811E-01  0.000000E+00
  8.668160E-01  8.914131E-03  5.000000E-01  8.755715E-01  9.042897E-03  0.000000E+00  1.119009E-02 -3.157889E-04 -4.174002E-17  3.048114E-01  0.000000E+00
  8.779950E-01  8.519515E-03  5.000000E-01  8.868634E-01  8.644295E-03  0.000000E+00  1.195808E-02 -4.998108E-04 -3.419933E-17  2.875474E-01  0.000000E+00
  8.885730E-01  8.013164E-03  5.000000E-01  8.975482E-01  8.132831E-03  0.000000E+00  1.278853E-02 -6.827042E-04 -2.867001E-17  2.668772E-01  0.000000E+00
  8.985610E-01  7.428445E-03  5.000000E-01  9.076371E-01  7.542207E-03  0.000000E+00  1.364884E-02 -8.577205E-04 -2.551403E-17  2.433222E-01  0.000000E+00
  9.079670E-01  6.799131E-03  5.000000E-01  9.171381E-01  6.906537E-03  0.000000E+00  1.449972E-02 -1.012490E-03 -2.430350E-17  2.173444E-01  0.000000E+00
  9.168010E-01  6.157726E-03  5.000000E-01  9.260613E-01  6.258654E-03  0.000000E+00  1.530357E-02 -1.137869E-03 -3.024694E-17  1.900016E-01  0.000000E+00
  9.168010E-01  6.157726E-03  5.000000E-01  9.260613E-01  6.258654E-03  0.000000E+00  1.530357E-02 -1.137869E-03 -3.024694E-17  1.900016E-01  0.000000E+00
  9.250730E-01  5.529033E-03  5.000000E-01  9.344168E-01  5.623613E-03  0.000000E+00  1.603719E-02 -1.235088E-03 -4.239137E-17  1.628184E-01  0.000000E+00
  9.327940E-01  4.927293E-03  5.000000E-01  9.422158E-01  5.015796E-03  0.000000E+00  1.670007E-02 -1.315848E-03 -6.592755E-17  1.371082E-01  0.000000E+00
  9.399760E-01  4.355781E-03  5.000000E-01  9.494703E-01  4.438512E-03  0.000000E+00  1.730844E-02 -1.391689E-03 -1.051982E-16  1.131399E-01  0.000000E+00
  9.466320E-01  3.815200E-03  5.000000E-01  9.561935E-01  3.892472E-03  0.000000E+00  1.788247E-02 -1.467140E-03 -1.651953E-16  9.017576E-02  0.000000E+00
  9.527730E-01  3.306371E-03  5.000000E-01  9.623965E-01  3.378504E-03  0.000000E+00  1.844684E-02 -1.548697E-03 -2.637912E-16  6.767617E-02  0.000000E+00
  9.584110E-01  2.827154E-03  5.000000E-01  9.680915E-01  2.894448E-03  0.000000E+00  1.903424E-02 -1.647006E-03 -4.095132E-16  4.540883E-02  0.000000E+00
  9.635570E-01  2.374318E-03  5.000000E-01  9.732895E-01  2.437039E-03  0.000000E+00  1.967858E-02 -1.767948E-03 -5.835474E-16  2.265606E-02  0.000000E+00
  9.682220E-01  1.946793E-03  5.000000E-01  9.780016E-01  2.005196E-03  0.000000E+00  2.041199E-02 -1.912159E-03 -6.697530E-16 -1.670751E-03  0.000000E+00
  9.724140E-01  1.545859E-03  5.000000E-01  9.822359E-01  1.600213E-03  0.000000E+00  2.128250E-02 -2.087645E-03 -3.037629E-16 -2.820223E-02  0.000000E+00
  9.761430E-01  1.171440E-03  5.000000E-01  9.860026E-01  1.222013E-03  0.000000E+00  2.237223E-02 -2.311568E-03  1.116902E-15 -5.739067E-02  0.000000E+00
  9.794160E-01  8.242704E-04  5.000000E-01  9.893086E-01  8.713372E-04  0.000000E+00  2.378319E-02 -2.597350E-03  3.875611E-15 -9.031734E-02  0.000000E+00
  9.822400E-01  5.074293E-04  5.000000E-01  9.921611E-01  5.512964E-04  0.000000E+00  2.556631E-02 -2.947185E-03  6.736535E-15 -1.284355E-01  0.000000E+00
  9.846200E-01  2.260650E-04  5.000000E-01  9.945652E-01  2.670906E-04  0.000000E+00  2.759056E-02 -3.347856E-03  6.239485E-15 -1.720943E-01  0.000000E+00
  9.865620E-01 -1.453607E-05  5.000000E-01  9.965268E-01  2.405973E-05  0.000000E+00  2.940956E-02 -3.711576E-03 -1.123842E-15 -2.194030E-01  0.000000E+00
  9.880680E-01 -2.086060E-04  5.000000E-01  9.980480E-01 -1.719701E-04  0.000000E+00  2.987554E-02 -3.826692E-03 -1.080035E-14 -2.766118E-01  0.000000E+00
  9.891420E-01 -3.514239E-04  5.000000E-01  9.991328E-01 -3.162303E-04  0.000000E+00  2.812833E-02 -3.911126E-03  1.274556E-15 -3.434962E-01  0.000000E+00
  9.897860E-01 -4.389487E-04  5.000000E-01  9.997833E-01 -4.046390E-04  0.000000E+00  3.788602E-02 -4.013257E-03  2.831084E-14 -2.893907E-01  0.000000E+00
  9.900000E-01 -4.683023E-04  5.000000E-01  9.999995E-01 -4.342890E-04  0.000000E+00  2.618835E-02  5.267615E-03  7.340272E-14 -5.820146E-01  0.000000E+00
  9.900000E-01 -1.843754E-04  5.000000E-01  9.999995E-01 -1.474948E-04  0.000000E+00  1.229769E-03 -7.885234E-03  2.892279E-14 -8.088076E-01  0.000000E+00
  9.900000E-01  9.955150E-05  5.000000E-01  9.999995E-01  1.392995E-04  0.000000E+00 -4.468891E-04 -2.274864E-02 -4.583664E-14 -6.283575E-01  0.000000E+00
  9.900000E-01  3.834784E-04  5.000000E-01  9.999995E-01  4.260937E-04  0.000000E+00 -1.435979E-04 -8.862953E-03 -2.709872E-14 -6.283136E-01  0.000000E+00
  9.900000E-01  6.674053E-04  5.000000E-01  9.999995E-01  7.128879E-04  0.000000E+00  4.646590E-04 -5.229912E-03  2.835565E-15 -6.881942E-01  0.000000E+00
  9.900000E-01  9.513321E-04  5.000000E-01  9.999995E-01  9.996821E-04  0.000000E+00  6.797339E-03 -6.632414E-03  1.882969E-14 -6.299431E-01  0.000000E+00
  9.900000E-01  9.513321E-04  5.000000E-01  9.999995E-01  9.996821E-04  0.000000E+00  6.797339E-03 -6.632414E-03  1.882969E-14 -6.299431E-01  0.000000E+00
  9.897890E-01  1.017904E-03  5.000000E-01  9.997864E-01  1.066926E-03  0.000000E+00  9.015766E-03 -3.469584E-03  1.769286E-14 -5.523828E-01  0.000000E+00
  9.891540E-01  1.218674E-03  5.000000E-01  9.991450E-01  1.269724E-03  0.000000E+00  4.567774E-03 -1.351278E-03  1.099111E-14 -5.709852E-01  0.000000E+00
  9.880950E-01  1.555408E-03  5.000000E-01  9.980753E-01  1.609858E-03  0.000000E+00  3.024791E-03 -9.609238E-04  4.631490E-15 -5.705453E-01  0.000000E+00
  9.866100E-01  2.031333E-03  5.000000E-01  9.965753E-01  2.090590E-03  0.000000E+00  1.983754E-03 -6.497783E-04  2.075139E-15 -5.626454E-01  0.000000E+00
  9.846960E-01  2.650662E-03  5.000000E-01  9.946419E-01  2.716174E-03  0.000000E+00  9.958984E-04 -3.234597E-04  8.947062E-16 -5.590076E-01  0.000000E+00
  9.823490E-01  3.418251E-03  5.000000E-01  9.922712E-01  3.491515E-03  0.000000E+00  1.849714E-04 -5.918082E-05  3.396824E-16 -5.580282E-01  0.000000E+00
  9.795670E-01  4.338749E-03  5.000000E-01  9.894611E-01  4.421308E-03  0.000000E+00 -4.278459E-04  1.427372E-04  1.077808E-16 -5.582701E-01  0.000000E+00
  9.763420E-01  5.417935E-03  5.000000E-01  9.862036E-01  5.511392E-03  0.000000E+00 -8.716162E-04  2.932930E-04  5.503707E-18 -5.597148E-01  0.000000E+00
  9.726710E-01  6.659543E-03  5.000000E-01  9.824955E-01  6.765540E-03  0.000000E+00 -1.170648E-03  3.977108E-04 -2.968937E-17 -5.622486E-01  0.000000E+00
  9.685460E-01  8.066753E-03  5.000000E-01  9.783288E-01  8.186961E-03  0.000000E+00 -1.342223E-03  4.594743E-04 -2.885844E-17 -5.654520E-01  0.000000E+00
  9.639600E-01  9.641707E-03  5.000000E-01  9.736965E-01  9.777820E-03  0.000000E+00 -1.402979E-03  4.831492E-04 -1.742896E-17 -5.688171E-01  0.000000E+00
  9.589060E-01  1.138655E-02  5.000000E-01  9.685915E-01  1.154029E-02  0.000000E+00 -1.373330E-03  4.750064E-04 -9.541882E-18 -5.718681E-01  0.000000E+00
  9.533750E-01  1.330247E-02  5.000000E-01  9.630046E-01  1.347555E-02  0.000000E+00 -1.279141E-03  4.433734E-04 -5.367502E-18 -5.742412E-01  0.000000E+00
  9.473580E-01  1.538821E-02  5.000000E-01  9.569269E-01  1.558236E-02  0.000000E+00 -1.150244E-03  3.984007E-04 -3.271633E-18 -5.757513E-01  0.000000E+00
  9.408450E-01  1.764045E-02  5.000000E-01  9.503481E-01  1.785734E-02  0.000000E+00 -1.016851E-03  3.507867E-04 -4.139051E-18 -5.764279E-01  0.000000E+00
  9.338260E-01  2.005389E-02  5.000000E-01  9.432582E-01  2.029516E-02  0.000000E+00 -9.056613E-04  3.100262E-04 -6.737364E-18 -5.764993E-01  0.000000E+00
  9.262910E-01  2.262009E-02  5.000000E-01  9.356471E-01  2.288727E-02  0.000000E+00 -8.372515E-04  2.831479E-04 -9.467038E-18 -5.763182E-01  0.000000E+00
  9.182290E-01  2.532623E-02  5.000000E-01  9.275037E-01  2.562074E-02  0.000000E+00 -8.255273E-04  2.742335E-04 -1.345699E-17 -5.762552E-01  0.000000E+00
  9.096280E-01  2.815459E-02  5.000000E-01  9.188158E-01  2.847766E-02  0.000000E+00 -8.781716E-04  2.845234E-04 -1.725583E-17 -5.766708E-01  0.000000E+00
  9.004770E-01  3.108169E-02  5.000000E-01  9.095724E-01  3.143432E-02  0.000000E+00 -9.970086E-04  3.126380E-04 -1.842751E-17 -5.778801E-01  0.000000E+00
  8.907650E-01  3.407660E-02  5.000000E-01  8.997623E-01  3.445948E-02  0.000000E+00 -1.179246E-03  3.542566E-04 -1.749869E-17 -5.799683E-01  0.000000E+00
  8.804800E-01  3.709793E-02  5.000000E-01  8.893735E-01  3.751132E-02  0.000000E+00 -1.418042E-03  4.017132E-04 -5.016192E-18 -5.828359E-01  0.000000E+00
  8.696090E-01  4.008991E-02  5.000000E-01  8.783927E-01  4.053352E-02  0.000000E+00 -1.699108E-03  4.455683E-04  2.809368E-17 -5.864177E-01  0.000000E+00
  8.696090E-01  4.008991E-02  5.000000E-01  8.783927E-01  4.053352E-02  0.000000E+00 -1.699108E-03  4.455683E-04  2.809368E-17 -5.864177E-01  0.000000E+00
  8.581400E-01  4.298047E-02  5.000000E-01  8.668079E-01  4.345327E-02  0.000000E+00 -2.002412E-03  4.768978E-04  8.981504E-17 -5.897248E-01  0.000000E+00
  8.460600E-01  4.568543E-02  5.000000E-01  8.546059E-01  4.618554E-02  0.000000E+00 -2.310187E-03  4.855464E-04  1.752879E-16 -5.905567E-01  0.000000E+00
  8.333640E-01  4.812492E-02  5.000000E-01  8.417817E-01  4.864967E-02  0.000000E+00 -2.567381E-03  4.509317E-04  2.717714E-16 -5.921106E-01  0.000000E+00
  8.200460E-01  5.022337E-02  5.000000E-01  8.283292E-01  5.076931E-02  0.000000E+00 -2.540640E-03  3.448680E-04  3.540865E-16 -6.136457E-01  0.000000E+00
  8.061050E-01  5.191333E-02  5.000000E-01  8.142474E-01  5.247634E-02  0.000000E+00 -1.648284E-03  1.621418E-04  3.643274E-16 -6.844010E-01  0.000000E+00
  7.915460E-01  5.316908E-02  5.000000E-01  7.995413E-01  5.374477E-02  0.000000E+00  9.922462E-04 -5.249451E-05  2.639627E-16 -8.103959E-01  0.000000E+00
  7.763770E-01  5.402982E-02  5.000000E-01  7.842191E-01  5.461420E-02  0.000000E+00  5.990946E-03 -2.164721E-04  9.735271E-17 -9.517125E-01  0.000000E+00
  7.606070E-01  5.456485E-02  5.000000E-01  7.682899E-01  5.515464E-02  0.000000E+00  1.260925E-02 -2.326974E-04 -1.039072E-17 -1.050191E+00  0.000000E+00
  7.442510E-01  5.478151E-02  5.000000E-01  7.517687E-01  5.537349E-02  0.000000E+00  1.845443E-02 -4.496395E-05 -9.287294E-18 -1.081602E+00  0.000000E+00
  7.273250E-01  5.469765E-02  5.000000E-01  7.346718E-01  5.528878E-02  0.000000E+00  2.145715E-02  2.562002E-04  4.506080E-17 -1.067293E+00  0.000000E+00
  7.098490E-01  5.436574E-02  5.000000E-01  7.170193E-01  5.495352E-02  0.000000E+00  2.167902E-02  4.875434E-04  1.113538E-16 -1.042300E+00  0.000000E+00
  6.918480E-01  5.388186E-02  5.000000E-01  6.988365E-01  5.446475E-02  0.000000E+00  2.053755E-02  5.378166E-04  1.422471E-16 -1.031199E+00  0.000000E+00
  6.733520E-01  5.339614E-02  5.000000E-01  6.801537E-01  5.397412E-02  0.000000E+00  1.933105E-02  3.966255E-04  1.046833E-16 -1.044709E+00  0.000000E+00
  6.543930E-01  5.310813E-02  5.000000E-01  6.610032E-01  5.368321E-02  0.000000E+00  1.875457E-02  1.294345E-04  3.801955E-17 -1.079363E+00  0.000000E+00
  6.350090E-01  5.313749E-02  5.000000E-01  6.414235E-01  5.371286E-02  0.000000E+00  1.903426E-02 -1.467943E-04 -2.838806E-18 -1.119806E+00  0.000000E+00
  6.152440E-01  5.341694E-02  5.000000E-01  6.214589E-01  5.399514E-02  0.000000E+00  1.996332E-02 -3.486144E-04  1.245207E-17 -1.151522E+00  0.000000E+00
  5.951420E-01  5.383647E-02  5.000000E-01  6.011539E-01  5.441890E-02  0.000000E+00  2.108724E-02 -4.395121E-04  9.498477E-17 -1.167551E+00  0.000000E+00
  5.747530E-01  5.426567E-02  5.000000E-01  5.805590E-01  5.485244E-02  0.000000E+00  2.203825E-02 -3.839797E-04  2.138097E-16 -1.165432E+00  0.000000E+00
  5.541290E-01  5.455979E-02  5.000000E-01  5.597267E-01  5.514953E-02  0.000000E+00  2.264728E-02 -1.704628E-04  2.838397E-16 -1.146601E+00  0.000000E+00
  5.333260E-01  5.458120E-02  5.000000E-01  5.387136E-01  5.517115E-02  0.000000E+00  2.285311E-02  1.287786E-04  2.394971E-16 -1.118458E+00  0.000000E+00
  5.124010E-01  5.431923E-02  5.000000E-01  5.175773E-01  5.490653E-02  0.000000E+00  2.270622E-02  4.073178E-04  1.141620E-16 -1.090541E+00  0.000000E+00
  4.914140E-01  5.382396E-02  5.000000E-01  4.963783E-01  5.440626E-02  0.000000E+00  2.239022E-02  6.211510E-04 -1.278312E-17 -1.068258E+00  0.000000E+00
  4.704230E-01  5.315125E-02  5.000000E-01  4.751754E-01  5.372676E-02  0.000000E+00  2.208391E-02  7.684227E-04 -8.545992E-17 -1.053656E+00  0.000000E+00
  1.696960E-04 -4.810012E-04  5.000000E-01  1.730287E-04 -4.471161E-04  0.000000E+00 -6.436950E-02  9.282101E-02 -1.023350E-13  5.409117E-01  0.000000E+00
  8.054360E-04 -9.781856E-04  5.000000E-01  8.151890E-04 -9.493216E-04  0.000000E+00 -4.693412E-02  3.286234E-02 -9.159773E-14  1.106832E+00  0.000000E+00
  1.973980E-03 -1.585099E-03  5.000000E-01  1.995534E-03 -1.562364E-03  0.000000E+00 -2.105153E-02  1.047951E-02 -6.125704E-14  1.176614E+00  0.000000E+00
  3.614630E-03 -2.299723E-03  5.000000E-01  3.652753E-03 -2.284205E-03  0.000000E+00 -4.055461E-03  1.772904E-03 -3.143443E-14  1.152925E+00  0.000000E+00
  5.721210E-03 -3.130487E-03  5.000000E-01  5.780607E-03 -3.123359E-03  0.000000E+00  5.020211E-03 -1.863740E-03 -1.426892E-14  1.122580E+00  0.000000E+00
  8.297500E-03 -4.074911E-03  5.000000E-01  8.382914E-03 -4.077320E-03  0.000000E+00  9.329733E-03 -3.267926E-03 -5.298735E-15  1.078246E+00  0.000000E+00
  1.136560E-02 -5.113388E-03  5.000000E-01  1.148200E-02 -5.126285E-03  0.000000E+00  1.109808E-02 -3.619105E-03 -1.152386E-15  1.023816E+00  0.000000E+00
  1.493280E-02 -6.234672E-03  5.000000E-01  1.508522E-02 -6.258892E-03  0.000000E+00  1.169364E-02 -3.584652E-03  1.320076E-16  9.693048E-01  0.000000E+00
  1.899460E-02 -7.447072E-03  5.000000E-01  1.918804E-02 -7.483537E-03  0.000000E+00  1.195006E-02 -3.514726E-03  3.368789E-16  9.186116E-01  0.000000E+00
  2.354800E-02 -8.766639E-03  5.000000E-01  2.378743E-02 -8.816430E-03  0.000000E+00  1.228451E-02 -3.506769E-03  3.063032E-16  8.687302E-01  0.000000E+00
  2.860130E-02 -1.018888E-02  5.000000E-01  2.889176E-02 -1.025304E-02  0.000000E+00  1.281569E-02 -3.545771E-03  2.364675E-16  8.170145E-01  0.000000E+00
  3.416500E-02 -1.170272E-02  5.000000E-01  3.451165E-02 -1.178216E-02  0.000000E+00  1.352516E-02 -3.613181E-03  1.677675E-16  7.646889E-01  0.000000E+00
  4.024810E-02 -1.329896E-02  5.000000E-01  4.065618E-02 -1.339452E-02  0.000000E+00  1.435424E-02 -3.689795E-03  1.383673E-16  7.126643E-01  0.000000E+00
  4.686030E-02 -1.496531E-02  5.000000E-01  4.733516E-02 -1.507770E-02  0.000000E+00  1.523855E-02 -3.755778E-03  1.667050E-16  6.607248E-01  0.000000E+00
  5.401090E-02 -1.669007E-02  5.000000E-01  5.455797E-02 -1.681988E-02  0.000000E+00  1.613135E-02 -3.802734E-03  2.502224E-16  6.089391E-01  0.000000E+00
  6.170850E-02 -1.846463E-02  5.000000E-01  6.233331E-02 -1.861236E-02  0.000000E+00  1.700702E-02 -3.822340E-03  3.864648E-16  5.569351E-01  0.000000E+00
  6.996310E-02 -2.027466E-02  5.000000E-01  7.067127E-02 -2.044066E-02  0.000000E+00  1.785182E-02 -3.802089E-03  5.521558E-16  5.040094E-01  0.000000E+00
  7.878500E-02 -2.210052E-02  5.000000E-01  7.958226E-02 -2.228497E-02  0.000000E+00  1.866263E-02 -3.738366E-03  7.039932E-16  4.503593E-01  0.000000E+00
  8.818390E-02 -2.392308E-02  5.000000E-01  8.907608E-02 -2.412594E-02  0.000000E+00  1.944085E-02 -3.631261E-03  8.079963E-16  3.964197E-01  0.000000E+00
  9.816930E-02 -2.571980E-02  5.000000E-01  9.916232E-02 -2.594080E-02  0.000000E+00  2.018106E-02 -3.476123E-03  8.436932E-16  3.422508E-01  0.000000E+00
  1.087500E-01 -2.746381E-02  5.000000E-01  1.098499E-01 -2.770242E-02  0.000000E+00  2.086706E-02 -3.269468E-03  7.862433E-16  2.882748E-01  0.000000E+00
  1.199340E-01 -2.912778E-02  5.000000E-01  1.211468E-01 -2.938320E-02  0.000000E+00  2.146402E-02 -3.006283E-03  5.923737E-16  2.351959E-01  0.000000E+00
  1.317280E-01 -3.067965E-02  5.000000E-01  1.330599E-01 -3.095074E-02  0.000000E+00  2.191130E-02 -2.677731E-03  4.215273E-16  1.838619E-01  0.000000E+00
  1.441380E-01 -3.208207E-02  5.000000E-01  1.455952E-01 -3.236732E-02  0.000000E+00  2.213774E-02 -2.283779E-03  5.522464E-16  1.360566E-01  0.000000E+00
  1.441380E-01 -3.208207E-02  5.000000E-01  1.455952E-01 -3.236732E-02  0.000000E+00  2.213774E-02 -2.283779E-03  5.522464E-16  1.360566E-01  0.000000E+00
  1.571670E-01 -3.329856E-02  5.000000E-01  1.587558E-01 -3.359610E-02  0.000000E+00  2.209219E-02 -1.838134E-03  4.856965E-16  9.435761E-02  0.000000E+00
  1.708170E-01 -3.429422E-02  5.000000E-01  1.725437E-01 -3.460181E-02  0.000000E+00  2.178418E-02 -1.370494E-03  6.561154E-17  6.149768E-02  0.000000E+00
  1.850860E-01 -3.504534E-02  5.000000E-01  1.869568E-01 -3.536051E-02  0.000000E+00  2.131756E-02 -9.338180E-04  3.112703E-17  3.982677E-02  0.000000E+00
  1.999720E-01 -3.556050E-02  5.000000E-01  2.019931E-01 -3.588088E-02  0.000000E+00  2.087287E-02 -5.963901E-04  3.797926E-16  3.007862E-02  0.000000E+00
  2.154670E-01 -3.590530E-02  5.000000E-01  2.176446E-01 -3.622916E-02  0.000000E+00  2.059313E-02 -3.845859E-04  6.973754E-16  2.788446E-02  0.000000E+00
  2.315610E-01 -3.614990E-02  5.000000E-01  2.339011E-01 -3.647623E-02  0.000000E+00  2.046588E-02 -2.365313E-04  8.383194E-16  2.316682E-02  0.000000E+00
  2.482400E-01 -3.628597E-02  5.000000E-01  2.507486E-01 -3.661368E-02  0.000000E+00  2.039660E-02 -8.599001E-05  7.972088E-16  1.044546E-02  0.000000E+00
  2.654840E-01 -3.629152E-02  5.000000E-01  2.681667E-01 -3.661928E-02  0.000000E+00  2.031821E-02  8.201994E-05  6.649361E-16 -7.126226E-03  0.000000E+00
  2.832720E-01 -3.614107E-02  5.000000E-01  2.861343E-01 -3.646731E-02  0.000000E+00  2.019330E-02  2.651902E-04  5.161916E-16 -2.451999E-02  0.000000E+00
  3.015770E-01 -3.581333E-02  5.000000E-01  3.046242E-01 -3.613626E-02  0.000000E+00  2.000620E-02  4.541328E-04  3.739765E-16 -3.832758E-02  0.000000E+00
  3.203660E-01 -3.529498E-02  5.000000E-01  3.236030E-01 -3.561267E-02  0.000000E+00  1.975493E-02  6.384748E-04  2.381255E-16 -4.739767E-02  0.000000E+00
  3.396030E-01 -3.458073E-02  5.000000E-01  3.430342E-01 -3.489121E-02  0.000000E+00  1.944287E-02  8.116658E-04  1.002390E-16 -5.207221E-02  0.000000E+00
  3.592490E-01 -3.366857E-02  5.000000E-01  3.628786E-01 -3.396985E-02  0.000000E+00  1.907296E-02  9.716771E-04 -3.159663E-17 -5.312368E-02  0.000000E+00
  3.792580E-01 -3.255732E-02  5.000000E-01  3.830897E-01 -3.284737E-02  0.000000E+00  1.864815E-02  1.117249E-03 -1.381014E-16 -5.093613E-02  0.000000E+00
  3.995810E-01 -3.124875E-02  5.000000E-01  4.036179E-01 -3.152558E-02  0.000000E+00  1.817237E-02  1.246004E-03 -2.117103E-16 -4.542556E-02  0.000000E+00
  4.201670E-01 -2.974883E-02  5.000000E-01  4.244118E-01 -3.001052E-02  0.000000E+00  1.764850E-02  1.356249E-03 -2.542292E-16 -3.650142E-02  0.000000E+00
  4.409600E-01 -2.806555E-02  5.000000E-01  4.454148E-01 -2.831024E-02  0.000000E+00  1.707896E-02  1.447428E-03 -2.717592E-16 -2.427970E-02  0.000000E+00
  4.619030E-01 -2.620842E-02  5.000000E-01  4.665693E-01 -2.643435E-02  0.000000E+00  1.647143E-02  1.517613E-03 -2.726322E-16 -8.849747E-03  0.000000E+00
  4.829360E-01 -2.419479E-02  5.000000E-01  4.878147E-01 -2.440038E-02  0.000000E+00  1.584025E-02  1.564279E-03 -2.637804E-16  9.608149E-03  0.000000E+00
  5.039990E-01 -2.204850E-02  5.000000E-01  5.090904E-01 -2.223243E-02  0.000000E+00  1.520253E-02  1.586658E-03 -2.440698E-16  3.055419E-02  0.000000E+00
  5.250310E-01 -1.979931E-02  5.000000E-01  5.303348E-01 -1.996052E-02  0.000000E+00  1.457516E-02  1.586163E-03 -2.166186E-16  5.316362E-02  0.000000E+00
  5.459710E-01 -1.747966E-02  5.000000E-01  5.514863E-01 -1.761744E-02  0.000000E+00  1.397309E-02  1.566359E-03 -1.867894E-16  7.649336E-02  0.000000E+00
  5.667600E-01 -1.512086E-02  5.000000E-01  5.724853E-01 -1.523482E-02  0.000000E+00  1.341165E-02  1.530170E-03 -1.397902E-16  9.988544E-02  0.000000E+00
  4.704230E-01  5.315125E-02  5.000000E-01  4.751754E-01  5.372676E-02  0.000000E+00  2.208391E-02  7.684227E-04 -8.545992E-17 -1.053656E+00  0.000000E+00
  4.494880E-01  5.236175E-02  5.000000E-01  4.540289E-01  5.292929E-02  0.000000E+00  2.188919E-02  8.563040E-04 -9.757968E-17 -1.046914E+00  0.000000E+00
  4.286690E-01  5.151601E-02  5.000000E-01  4.329997E-01  5.207501E-02  0.000000E+00  2.185903E-02  9.112473E-04 -7.176213E-17 -1.045626E+00  0.000000E+00
  4.080230E-01  5.063481E-02  5.000000E-01  4.121452E-01  5.118491E-02  0.000000E+00  2.200128E-02  9.726052E-04 -3.692377E-17 -1.045761E+00  0.000000E+00
  3.876050E-01  4.970324E-02  5.000000E-01  3.915210E-01  5.024393E-02  0.000000E+00  2.225418E-02  1.058246E-03 -1.772765E-17 -1.044708E+00  0.000000E+00
  3.674690E-01  4.870799E-02  5.000000E-01  3.711816E-01  4.923863E-02  0.000000E+00  2.252968E-02  1.165203E-03 -1.416452E-17 -1.041796E+00  0.000000E+00
  3.476650E-01  4.763905E-02  5.000000E-01  3.511776E-01  4.815890E-02  0.000000E+00  2.277221E-02  1.289159E-03 -1.883684E-17 -1.037080E+00  0.000000E+00
  3.282390E-01  4.648877E-02  5.000000E-01  3.315555E-01  4.699700E-02  0.000000E+00  2.296510E-02  1.427311E-03 -1.928655E-17 -1.030914E+00  0.000000E+00
  3.092330E-01  4.525197E-02  5.000000E-01  3.123575E-01  4.574771E-02  0.000000E+00  2.311082E-02  1.574499E-03 -1.144190E-17 -1.023939E+00  0.000000E+00
  2.906860E-01  4.393163E-02  5.000000E-01  2.936232E-01  4.441403E-02  0.000000E+00  2.321905E-02  1.725613E-03  2.958674E-18 -1.016786E+00  0.000000E+00
  2.726330E-01  4.253336E-02  5.000000E-01  2.753879E-01  4.300164E-02  0.000000E+00  2.330215E-02  1.879814E-03  2.076887E-17 -1.009716E+00  0.000000E+00
  2.551020E-01  4.106266E-02  5.000000E-01  2.576799E-01  4.151609E-02  0.000000E+00  2.336851E-02  2.038206E-03  3.653768E-17 -1.002731E+00  0.000000E+00
  2.381210E-01  3.952547E-02  5.000000E-01  2.405274E-01  3.996337E-02  0.000000E+00  2.342405E-02  2.204193E-03  5.107898E-17 -9.956809E-01  0.000000E+00
  2.217090E-01  3.792397E-02  5.000000E-01  2.239496E-01  3.834571E-02  0.000000E+00  2.346852E-02  2.379001E-03  6.160568E-17 -9.888701E-01  0.000000E+00
  2.058840E-01  3.626069E-02  5.000000E-01  2.079648E-01  3.666563E-02  0.000000E+00  2.348219E-02  2.541387E-03  5.907716E-17 -9.845093E-01  0.000000E+00
  1.906600E-01  3.456320E-02  5.000000E-01  1.925871E-01  3.495099E-02  0.000000E+00  2.345739E-02  2.655111E-03  4.063796E-17 -9.859899E-01  0.000000E+00
  1.760460E-01  3.288189E-02  5.000000E-01  1.778255E-01  3.325270E-02  0.000000E+00  2.346105E-02  2.724880E-03  1.626031E-17 -9.938296E-01  0.000000E+00
  1.620500E-01  3.124088E-02  5.000000E-01  1.636881E-01  3.159512E-02  0.000000E+00  2.358448E-02  2.792793E-03 -8.466952E-18 -1.005274E+00  0.000000E+00
  1.486750E-01  2.964235E-02  5.000000E-01  1.501781E-01  2.998045E-02  0.000000E+00  2.384849E-02  2.888484E-03 -3.190580E-17 -1.017407E+00  0.000000E+00
  1.359210E-01  2.807811E-02  5.000000E-01  1.372953E-01  2.840041E-02  0.000000E+00  2.420290E-02  3.019848E-03 -5.810278E-17 -1.028485E+00  0.000000E+00
  1.237890E-01  2.653937E-02  5.000000E-01  1.250407E-01  2.684613E-02  0.000000E+00  2.457722E-02  3.184266E-03 -1.140556E-16 -1.037862E+00  0.000000E+00
  1.122730E-01  2.501659E-02  5.000000E-01  1.134084E-01  2.530797E-02  0.000000E+00  2.492003E-02  3.376576E-03 -2.276391E-16 -1.045637E+00  0.000000E+00
  1.013710E-01  2.350414E-02  5.000000E-01  1.023964E-01  2.378024E-02  0.000000E+00  2.520859E-02  3.590294E-03 -4.456544E-16 -1.052420E+00  0.000000E+00
  9.107400E-02  2.199998E-02  5.000000E-01  9.199536E-02  2.226090E-02  0.000000E+00  2.544654E-02  3.824626E-03 -7.883024E-16 -1.058787E+00  0.000000E+00
  9.107400E-02  2.199998E-02  5.000000E-01  9.199536E-02  2.226090E-02  0.000000E+00  2.544654E-02  3.824626E-03 -7.883024E-16 -1.058787E+00  0.000000E+00
  8.137660E-02  2.050189E-02  5.000000E-01  8.220003E-02  2.074768E-02  0.000000E+00  2.564194E-02  4.077939E-03 -1.293241E-15 -1.065483E+00  0.000000E+00
  7.227050E-02  1.901228E-02  5.000000E-01  7.300197E-02  1.924302E-02  0.000000E+00  2.579917E-02  4.344302E-03 -2.094143E-15 -1.073523E+00  0.000000E+00
  6.374670E-02  1.753624E-02  5.000000E-01  6.439209E-02  1.775208E-02  0.000000E+00  2.592905E-02  4.624841E-03 -3.395981E-15 -1.083577E+00  0.000000E+00
  5.579720E-02  1.607710E-02  5.000000E-01  5.636231E-02  1.627820E-02  0.000000E+00  2.603217E-02  4.915717E-03 -5.506169E-15 -1.096553E+00  0.000000E+00
  4.841260E-02  1.464339E-02  5.000000E-01  4.890313E-02  1.483001E-02  0.000000E+00  2.610671E-02  5.211672E-03 -8.871139E-15 -1.113442E+00  0.000000E+00
  4.158390E-02  1.324290E-02  5.000000E-01  4.200547E-02  1.341538E-02  0.000000E+00  2.615781E-02  5.519160E-03 -1.405479E-14 -1.134634E+00  0.000000E+00
  3.530370E-02  1.188052E-02  5.000000E-01  3.566185E-02  1.203924E-02  0.000000E+00  2.616652E-02  5.832865E-03 -2.151431E-14 -1.160968E+00  0.000000E+00
  2.956270E-02  1.056574E-02  5.000000E-01  2.986287E-02  1.071119E-02  0.000000E+00  2.610564E-02  6.147970E-03 -3.118569E-14 -1.193110E+00  0.000000E+00
  2.435310E-02  9.305118E-03  5.000000E-01  2.460066E-02  9.437832E-03  0.000000E+00  2.593520E-02  6.476349E-03 -4.188853E-14 -1.230472E+00  0.000000E+00
  1.967110E-02  8.099132E-03  5.000000E-01  1.987137E-02  8.219667E-03  0.000000E+00  2.552070E-02  6.788611E-03 -5.088548E-14 -1.273363E+00  0.000000E+00
  1.550860E-02  6.954949E-03  5.000000E-01  1.566684E-02  7.063929E-03  0.000000E+00  2.468429E-02  7.036310E-03 -5.450321E-14 -1.322090E+00  0.000000E+00
  1.185930E-02  5.876231E-03  5.000000E-01  1.198068E-02  5.974317E-03  0.000000E+00  2.332834E-02  7.212185E-03 -4.963527E-14 -1.374805E+00  0.000000E+00
  8.724160E-03  4.859163E-03  5.000000E-01  8.813883E-03  4.946978E-03  0.000000E+00  2.157871E-02  7.343856E-03 -3.424605E-14 -1.431048E+00  0.000000E+00
  6.091130E-03  3.911940E-03  5.000000E-01  6.154263E-03  3.990189E-03  0.000000E+00  2.032366E-02  7.820650E-03 -6.199001E-15 -1.486224E+00  0.000000E+00
  3.952840E-03  3.037283E-03  5.000000E-01  3.994378E-03  3.106698E-03  0.000000E+00  2.113545E-02  9.733937E-03  4.007536E-14 -1.523399E+00  0.000000E+00
  2.330070E-03  2.222405E-03  5.000000E-01  2.355220E-03  2.283592E-03  0.000000E+00  2.423873E-02  1.419530E-02  1.120284E-13 -1.531086E+00  0.000000E+00
  1.198080E-03  1.485420E-03  5.000000E-01  1.211798E-03  1.539164E-03  0.000000E+00  2.759957E-02  2.139013E-02  1.978328E-13 -1.519246E+00  0.000000E+00
  5.019560E-04  8.593888E-04  5.000000E-01  5.086442E-04  9.068103E-04  0.000000E+00  3.041167E-02  3.350380E-02  2.120290E-13 -1.530791E+00  0.000000E+00
  1.313430E-04  3.762248E-04  5.000000E-01  1.342884E-04  4.187669E-04  0.000000E+00  3.506355E-02  7.036311E-02  2.909327E-14 -1.566086E+00  0.000000E+00
  8.078190E-06  6.807414E-05  5.000000E-01  9.778777E-06  1.075042E-04  0.000000E+00  3.054283E-02  1.732848E-01 -6.420511E-14 -1.484755E+00  0.000000E+00
 -1.602820E-06 -3.835526E-05  5.000000E-01  0.000000E+00  0.000000E+00  0.000000E+00 -4.944380E-03  2.521461E-01  1.651451E-13 -1.190861E+00  0.000000E+00
  9.141860E-06 -1.484062E-04  5.000000E-01  1.085319E-05 -1.111623E-04  0.000000E+00 -4.976277E-02  1.967991E-01  1.159889E-13 -4.687310E-01  0.000000E+00