 Title = "ADflow Slice Data"
Variables =  "CoordinateX"  "CoordinateY"  "CoordinateZ"  "XoC"  "YoC"  "ZoC" "VelocityX" "VelocityY" "VelocityZ" "CoefPressure" "Mach" 
Zone T= "Slice_0001 None Absolute Regular z = 0.50000000"
 Nodes =          192  Elements=          184  ZONETYPE=FELINESEG
 DATAPACKING=POINT
  5.667600E-01 -1.917154E-03  5.000000E-01  5.724853E-01 -2.017454E-03  0.000000E+00  9.951490E-03  5.636853E-04 -6.523639E-20  3.266109E-01  0.000000E+00
  5.873410E-01 -9.922922E-04  5.000000E-01  5.932742E-01 -1.083252E-03  0.000000E+00  1.121364E-02  4.085380E-04 -1.749048E-18  3.057199E-01  0.000000E+00
  6.076580E-01 -4.077545E-04  5.000000E-01  6.137963E-01 -4.928109E-04  0.000000E+00  1.248321E-02  3.055845E-04 -1.502851E-18  2.726811E-01  0.000000E+00
  6.276600E-01  5.789723E-06  5.000000E-01  6.340003E-01 -7.509033E-05  0.000000E+00  1.357468E-02  2.790823E-04  6.794008E-19  2.357289E-01  0.000000E+00
  6.472970E-01  4.073816E-04  5.000000E-01  6.538357E-01  3.305572E-04  0.000000E+00  1.431516E-02  3.478199E-04  3.405735E-18  2.009935E-01  0.000000E+00
  6.665260E-01  9.454830E-04  5.000000E-01  6.732589E-01  8.740929E-04  0.000000E+00  1.461822E-02  4.915785E-04  2.408869E-18  1.745349E-01  0.000000E+00
  6.853050E-01  1.686760E-03  5.000000E-01  6.922275E-01  1.622856E-03  0.000000E+00  1.453767E-02  6.384606E-04  7.298598E-19  1.629257E-01  0.000000E+00
  7.035980E-01  2.577212E-03  5.000000E-01  7.107052E-01  2.522300E-03  0.000000E+00  1.419548E-02  7.349053E-04  1.858402E-18  1.663649E-01  0.000000E+00
  7.213750E-01  3.553574E-03  5.000000E-01  7.286618E-01  3.508522E-03  0.000000E+00  1.368938E-02  7.769555E-04  1.877573E-18  1.785306E-01  0.000000E+00
  7.386080E-01  4.562230E-03  5.000000E-01  7.460688E-01  4.527365E-03  0.000000E+00  1.307939E-02  7.767821E-04 -9.388993E-20  1.939319E-01  0.000000E+00
  7.552750E-01  5.565574E-03  5.000000E-01  7.629041E-01  5.540842E-03  0.000000E+00  1.240599E-02  7.505165E-04 -2.475505E-18  2.102282E-01  0.000000E+00
  7.713580E-01  6.542207E-03  5.000000E-01  7.791496E-01  6.527338E-03  0.000000E+00  1.171823E-02  7.092368E-04 -4.087844E-18  2.271041E-01  0.000000E+00
  7.868410E-01  7.477127E-03  5.000000E-01  7.947889E-01  7.471700E-03  0.000000E+00  1.110688E-02  6.390876E-04 -2.860186E-18  2.460490E-01  0.000000E+00
  8.017160E-01  8.292761E-03  5.000000E-01  8.098141E-01  8.295571E-03  0.000000E+00  1.068632E-02  5.188563E-04 -9.950492E-19  2.670519E-01  0.000000E+00
  8.159740E-01  8.892591E-03  5.000000E-01  8.242161E-01  8.901459E-03  0.000000E+00  1.051823E-02  3.598071E-04  1.678969E-18  2.845587E-01  0.000000E+00
  8.296120E-01  9.247560E-03  5.000000E-01  8.379919E-01  9.260012E-03  0.000000E+00  1.059505E-02  1.854965E-04  3.813433E-18  2.932961E-01  0.000000E+00
  8.426300E-01  9.364930E-03  5.000000E-01  8.511413E-01  9.378568E-03  0.000000E+00  1.088196E-02  5.365256E-06  1.530054E-18  2.932233E-01  0.000000E+00
  8.550290E-01  9.269407E-03  5.000000E-01  8.636655E-01  9.282080E-03  0.000000E+00  1.134193E-02 -1.786010E-04 -1.717166E-19  2.865787E-01  0.000000E+00
  8.668160E-01  8.993905E-03  5.000000E-01  8.755716E-01  9.003796E-03  0.000000E+00  1.193978E-02 -3.648790E-04  1.716275E-19  2.749807E-01  0.000000E+00
  8.779950E-01  8.576263E-03  5.000000E-01  8.868635E-01  8.581936E-03  0.000000E+00  1.264130E-02 -5.508894E-04  1.048159E-18  2.591468E-01  0.000000E+00
  8.885730E-01  8.053300E-03  5.000000E-01  8.975483E-01  8.053691E-03  0.000000E+00  1.341398E-02 -7.343214E-04  1.297153E-18  2.397179E-01  0.000000E+00
  8.985610E-01  7.456619E-03  5.000000E-01  9.076372E-01  7.450985E-03  0.000000E+00  1.422243E-02 -9.085314E-04  1.459113E-18  2.172446E-01  0.000000E+00
  9.079670E-01  6.818726E-03  5.000000E-01  9.171382E-01  6.806649E-03  0.000000E+00  1.502483E-02 -1.061063E-03  1.853753E-18  1.922376E-01  0.000000E+00
  9.168010E-01  6.171203E-03  5.000000E-01  9.260614E-01  6.152588E-03  0.000000E+00  1.578167E-02 -1.182928E-03  2.951874E-18  1.658196E-01  0.000000E+00
  9.168010E-01  6.171203E-03  5.000000E-01  9.260614E-01  6.152588E-03  0.000000E+00  1.578167E-02 -1.182928E-03  2.951874E-18  1.658196E-01  0.000000E+00
  9.250730E-01  5.538181E-03  5.000000E-01  9.344169E-01  5.513172E-03  0.000000E+00  1.646892E-02 -1.275842E-03  2.397290E-18  1.395760E-01  0.000000E+00
  9.327940E-01  4.933402E-03  5.000000E-01  9.422159E-01  4.902286E-03  0.000000E+00  1.708628E-02 -1.352112E-03  6.445688E-19  1.148559E-01  0.000000E+00
  9.399760E-01  4.359782E-03  5.000000E-01  9.494704E-01  4.322873E-03  0.000000E+00  1.765057E-02 -1.423666E-03  1.357189E-19  9.192494E-02  0.000000E+00
  9.466320E-01  3.817758E-03  5.000000E-01  9.561936E-01  3.775375E-03  0.000000E+00  1.818239E-02 -1.495119E-03 -1.069676E-18  7.001734E-02  0.000000E+00
  9.527730E-01  3.307959E-03  5.000000E-01  9.623967E-01  3.260428E-03  0.000000E+00  1.870676E-02 -1.573017E-03 -1.077223E-18  4.856815E-02  0.000000E+00
  9.584110E-01  2.828106E-03  5.000000E-01  9.680916E-01  2.775728E-03  0.000000E+00  1.925673E-02 -1.668069E-03  3.848839E-19  2.732957E-02  0.000000E+00
  9.635570E-01  2.374861E-03  5.000000E-01  9.732896E-01  2.317907E-03  0.000000E+00  1.986635E-02 -1.786096E-03 -7.786129E-19  5.572353E-03  0.000000E+00
  9.682220E-01  1.947085E-03  5.000000E-01  9.780017E-01  1.885810E-03  0.000000E+00  2.056762E-02 -1.927613E-03 -2.193953E-18 -1.780310E-02  0.000000E+00
  9.724140E-01  1.546002E-03  5.000000E-01  9.822360E-01  1.480676E-03  0.000000E+00  2.140844E-02 -2.100572E-03 -2.416407E-18 -4.343546E-02  0.000000E+00
  9.761430E-01  1.171500E-03  5.000000E-01  9.860027E-01  1.102393E-03  0.000000E+00  2.247109E-02 -2.322129E-03 -3.370018E-18 -7.178370E-02  0.000000E+00
  9.794160E-01  8.242883E-04  5.000000E-01  9.893087E-01  7.516743E-04  0.000000E+00  2.385804E-02 -2.605710E-03 -7.775117E-18 -1.039408E-01  0.000000E+00
  9.822400E-01  5.074284E-04  5.000000E-01  9.921612E-01  4.316144E-04  0.000000E+00  2.562148E-02 -2.953613E-03 -1.347014E-17 -1.413775E-01  0.000000E+00
  9.846200E-01  2.260578E-04  5.000000E-01  9.945653E-01  1.474022E-04  0.000000E+00  2.763277E-02 -3.352969E-03 -1.463784E-17 -1.844680E-01  0.000000E+00
  9.865620E-01 -1.454380E-05  5.000000E-01  9.965269E-01 -9.562920E-05  0.000000E+00  2.944914E-02 -3.716633E-03 -1.534849E-17 -2.313362E-01  0.000000E+00
  9.880680E-01 -2.086121E-04  5.000000E-01  9.980481E-01 -2.916573E-04  0.000000E+00  2.992796E-02 -3.833450E-03 -2.391333E-17 -2.881623E-01  0.000000E+00
  9.891420E-01 -3.514281E-04  5.000000E-01  9.991329E-01 -4.359157E-04  0.000000E+00  2.820909E-02 -3.921799E-03 -7.224986E-17 -3.547845E-01  0.000000E+00
  9.897860E-01 -4.389515E-04  5.000000E-01  9.997835E-01 -5.243230E-04  0.000000E+00  3.800013E-02 -4.024418E-03 -2.152296E-16 -3.013786E-01  0.000000E+00
  9.900000E-01 -4.683046E-04  5.000000E-01  9.999996E-01 -5.539725E-04  0.000000E+00  2.626340E-02  5.245710E-03 -1.548257E-16 -5.931692E-01  0.000000E+00
  9.900000E-01 -1.843777E-04  5.000000E-01  9.999996E-01 -2.671782E-04  0.000000E+00  1.238449E-03 -7.903250E-03  8.046043E-16 -8.190726E-01  0.000000E+00
  9.900000E-01  9.954921E-05  5.000000E-01  9.999996E-01  1.961603E-05  0.000000E+00 -4.492985E-04 -2.272708E-02  1.975079E-15 -6.392346E-01  0.000000E+00
  9.900000E-01  3.834761E-04  5.000000E-01  9.999996E-01  3.064103E-04  0.000000E+00 -1.460925E-04 -8.798403E-03  2.406168E-15 -6.390981E-01  0.000000E+00
  9.900000E-01  6.674030E-04  5.000000E-01  9.999996E-01  5.932046E-04  0.000000E+00  4.683768E-04 -5.194070E-03  2.328827E-15 -6.991893E-01  0.000000E+00
  9.900000E-01  9.513299E-04  5.000000E-01  9.999996E-01  8.799988E-04  0.000000E+00  6.865774E-03 -6.663804E-03  2.180496E-15 -6.409277E-01  0.000000E+00
  9.900000E-01  9.513299E-04  5.000000E-01  9.999996E-01  8.799988E-04  0.000000E+00  6.865774E-03 -6.663804E-03  2.180496E-15 -6.409277E-01  0.000000E+00
  9.897890E-01  1.017901E-03  5.000000E-01  9.997865E-01  9.472423E-04  0.000000E+00  9.121841E-03 -3.507266E-03  1.854169E-15 -5.631624E-01  0.000000E+00
  9.891540E-01  1.218670E-03  5.000000E-01  9.991451E-01  1.150039E-03  0.000000E+00  4.650863E-03 -1.376919E-03  1.220316E-15 -5.816928E-01  0.000000E+00
  9.880950E-01  1.555402E-03  5.000000E-01  9.980754E-01  1.490171E-03  0.000000E+00  3.104539E-03 -9.864763E-04  6.787760E-16 -5.811011E-01  0.000000E+00
  9.866100E-01  2.031325E-03  5.000000E-01  9.965754E-01  1.970901E-03  0.000000E+00  2.060428E-03 -6.745372E-04  3.360138E-16 -5.730660E-01  0.000000E+00
  9.846960E-01  2.650655E-03  5.000000E-01  9.946420E-01  2.596486E-03  0.000000E+00  1.066234E-03 -3.462954E-04  1.512345E-16 -5.692797E-01  0.000000E+00
  9.823490E-01  3.418251E-03  5.000000E-01  9.922713E-01  3.371833E-03  0.000000E+00  2.429650E-04 -7.822459E-05  5.804363E-17 -5.681288E-01  0.000000E+00
  9.795670E-01  4.338768E-03  5.000000E-01  9.894613E-01  4.301646E-03  0.000000E+00 -3.913938E-04  1.306413E-04  1.238229E-17 -5.682155E-01  0.000000E+00
  9.763420E-01  5.417998E-03  5.000000E-01  9.862037E-01  5.391776E-03  0.000000E+00 -8.677174E-04  2.920318E-04 -7.377340E-18 -5.695730E-01  0.000000E+00
  9.726710E-01  6.659696E-03  5.000000E-01  9.824956E-01  6.646014E-03  0.000000E+00 -1.210038E-03  4.111540E-04 -1.055554E-17 -5.721419E-01  0.000000E+00
  9.685460E-01  8.067069E-03  5.000000E-01  9.783289E-01  8.067600E-03  0.000000E+00 -1.432976E-03  4.906152E-04 -6.897042E-18 -5.755555E-01  0.000000E+00
  9.639600E-01  9.642307E-03  5.000000E-01  9.736966E-01  9.658746E-03  0.000000E+00 -1.548152E-03  5.332443E-04 -3.544864E-18 -5.793416E-01  0.000000E+00
  9.589060E-01  1.138762E-02  5.000000E-01  9.685916E-01  1.142169E-02  0.000000E+00 -1.569227E-03  5.429037E-04 -1.379766E-18 -5.830219E-01  0.000000E+00
  9.533750E-01  1.330430E-02  5.000000E-01  9.630047E-01  1.335772E-02  0.000000E+00 -1.514815E-03  5.252624E-04  9.603536E-19 -5.861769E-01  0.000000E+00
  9.473580E-01  1.539123E-02  5.000000E-01  9.569270E-01  1.546573E-02  0.000000E+00 -1.408476E-03  4.881376E-04  2.660050E-18 -5.885098E-01  0.000000E+00
  9.408450E-01  1.764529E-02  5.000000E-01  9.503482E-01  1.774255E-02  0.000000E+00 -1.276307E-03  4.407111E-04  1.839050E-18 -5.899011E-01  0.000000E+00
  9.338260E-01  2.006148E-02  5.000000E-01  9.432583E-01  2.018314E-02  0.000000E+00 -1.143362E-03  3.919566E-04 -8.919495E-19 -5.904408E-01  0.000000E+00
  9.262910E-01  2.263176E-02  5.000000E-01  9.356472E-01  2.277938E-02  0.000000E+00 -1.030404E-03  3.491865E-04 -2.327651E-18 -5.903968E-01  0.000000E+00
  9.182290E-01  2.534390E-02  5.000000E-01  9.275038E-01  2.551891E-02  0.000000E+00 -9.524659E-04  3.173934E-04 -6.605677E-19 -5.901108E-01  0.000000E+00
  9.096280E-01  2.818101E-02  5.000000E-01  9.188159E-01  2.838467E-02  0.000000E+00 -9.193054E-04  2.992897E-04 -8.157096E-19 -5.899161E-01  0.000000E+00
  9.004770E-01  3.112077E-02  5.000000E-01  9.095725E-01  3.135412E-02  0.000000E+00 -9.365772E-04  2.955321E-04 -3.840247E-19 -5.901241E-01  0.000000E+00
  8.907650E-01  3.413387E-02  5.000000E-01  8.997624E-01  3.439765E-02  0.000000E+00 -1.007008E-03  3.049560E-04  3.797131E-19 -5.910051E-01  0.000000E+00
  8.804800E-01  3.718125E-02  5.000000E-01  8.893736E-01  3.747581E-02  0.000000E+00 -1.131905E-03  3.246970E-04 -3.636921E-19 -5.926874E-01  0.000000E+00
  8.696090E-01  4.021041E-02  5.000000E-01  8.783928E-01  4.053556E-02  0.000000E+00 -1.312301E-03  3.502098E-04 -5.955864E-19 -5.951139E-01  0.000000E+00
  8.696090E-01  4.021041E-02  5.000000E-01  8.783928E-01  4.053556E-02  0.000000E+00 -1.312301E-03  3.502098E-04 -5.955864E-19 -5.951139E-01  0.000000E+00
  8.581400E-01  4.315392E-02  5.000000E-01  8.668080E-01  4.350879E-02  0.000000E+00 -1.547358E-03  3.747801E-04  1.458526E-18 -5.982119E-01  0.000000E+00
  8.460600E-01  4.593418E-02  5.000000E-01  8.546060E-01  4.631713E-02  0.000000E+00 -1.828091E-03  3.908036E-04  2.532450E-18 -6.021853E-01  0.000000E+00
  8.333640E-01  4.848065E-02  5.000000E-01  8.417817E-01  4.888931E-02  0.000000E+00 -2.133057E-03  3.926008E-04  8.942965E-19 -6.070300E-01  0.000000E+00
  8.200460E-01  5.073090E-02  5.000000E-01  8.283293E-01  5.116230E-02  0.000000E+00 -2.435949E-03  3.752907E-04  4.374417E-19 -6.113664E-01  0.000000E+00
  8.061050E-01  5.263574E-02  5.000000E-01  8.142475E-01  5.308637E-02  0.000000E+00 -2.693553E-03  3.319915E-04  4.929569E-19 -6.159029E-01  0.000000E+00
  7.915460E-01  5.419366E-02  5.000000E-01  7.995414E-01  5.466003E-02  0.000000E+00 -2.753798E-03  2.580997E-04  1.232071E-18 -6.334871E-01  0.000000E+00
  7.763770E-01  5.547379E-02  5.000000E-01  7.842192E-01  5.595308E-02  0.000000E+00 -2.205493E-03  1.555179E-04  1.753052E-18 -6.904094E-01  0.000000E+00
  7.606070E-01  5.657446E-02  5.000000E-01  7.682900E-01  5.706487E-02  0.000000E+00 -3.384714E-04  1.829338E-05  1.435783E-18 -8.019967E-01  0.000000E+00
  7.442510E-01  5.752333E-02  5.000000E-01  7.517688E-01  5.802332E-02  0.000000E+00  3.572058E-03 -1.699592E-04  5.525321E-19 -9.461434E-01  0.000000E+00
  7.273250E-01  5.835338E-02  5.000000E-01  7.346719E-01  5.886175E-02  0.000000E+00  9.418787E-03 -4.083840E-04 -1.480787E-18 -1.075938E+00  0.000000E+00
  7.098490E-01  5.912352E-02  5.000000E-01  7.170194E-01  5.963967E-02  0.000000E+00  1.561141E-02 -6.784099E-04 -4.238226E-18 -1.161352E+00  0.000000E+00
  6.918480E-01  5.992203E-02  5.000000E-01  6.988366E-01  6.044624E-02  0.000000E+00  2.005046E-02 -9.722677E-04 -6.086651E-18 -1.209309E+00  0.000000E+00
  6.733520E-01  6.087197E-02  5.000000E-01  6.801538E-01  6.140577E-02  0.000000E+00  2.193751E-02 -1.303848E-03 -5.364591E-18 -1.243811E+00  0.000000E+00
  6.543930E-01  6.212451E-02  5.000000E-01  6.610033E-01  6.267096E-02  0.000000E+00  2.218825E-02 -1.646172E-03 -2.406025E-18 -1.276441E+00  0.000000E+00
  6.350090E-01  6.371669E-02  5.000000E-01  6.414236E-01  6.427923E-02  0.000000E+00  2.223503E-02 -1.889647E-03 -2.073380E-18 -1.299445E+00  0.000000E+00
  6.152440E-01  6.545923E-02  5.000000E-01  6.214590E-01  6.603936E-02  0.000000E+00  2.276029E-02 -1.932095E-03 -2.140696E-18 -1.301199E+00  0.000000E+00
  5.951420E-01  6.710707E-02  5.000000E-01  6.011539E-01  6.770385E-02  0.000000E+00  2.359221E-02 -1.697918E-03  1.194542E-18 -1.274776E+00  0.000000E+00
  5.747530E-01  6.838664E-02  5.000000E-01  5.805590E-01  6.899633E-02  0.000000E+00  2.433558E-02 -1.111817E-03  7.663019E-18 -1.215782E+00  0.000000E+00
  5.541290E-01  6.900524E-02  5.000000E-01  5.597268E-01  6.962119E-02  0.000000E+00  2.468475E-02 -1.876311E-04  1.244235E-17 -1.126013E+00  0.000000E+00
  5.333260E-01  6.871079E-02  5.000000E-01  5.387137E-01  6.932376E-02  0.000000E+00  2.434106E-02  7.837956E-04  1.208936E-17 -1.025639E+00  0.000000E+00
  5.124010E-01  6.763812E-02  5.000000E-01  5.175773E-01  6.824025E-02  0.000000E+00  2.325998E-02  1.428883E-03  9.401994E-18 -9.452280E-01  0.000000E+00
  4.914140E-01  6.610965E-02  5.000000E-01  4.963784E-01  6.669635E-02  0.000000E+00  2.186488E-02  1.644521E-03  5.148637E-18 -9.050136E-01  0.000000E+00
  4.704230E-01  6.446352E-02  5.000000E-01  4.751754E-01  6.503360E-02  0.000000E+00  2.069412E-02  1.504461E-03 -1.721864E-18 -9.131682E-01  0.000000E+00
  1.696960E-04 -3.389926E-04  5.000000E-01  1.730288E-04 -4.233546E-04  0.000000E+00 -6.447750E-02  8.619844E-02  8.989943E-13  6.953628E-01  0.000000E+00
  8.054360E-04 -7.540996E-04  5.000000E-01  8.151891E-04 -8.426537E-04  0.000000E+00 -4.313040E-02  2.499010E-02  6.800941E-13  1.186517E+00  0.000000E+00
  1.973980E-03 -1.207362E-03  5.000000E-01  1.995534E-03 -1.300493E-03  0.000000E+00 -1.555587E-02  5.775331E-03  3.623119E-13  1.174400E+00  0.000000E+00
  3.614630E-03 -1.699754E-03  5.000000E-01  3.652753E-03 -1.797859E-03  0.000000E+00  1.043671E-03 -1.985312E-04  1.150620E-13  1.108111E+00  0.000000E+00
  5.721210E-03 -2.236174E-03  5.000000E-01  5.780607E-03 -2.339695E-03  0.000000E+00  9.142112E-03 -2.135329E-03 -6.508018E-15  1.056585E+00  0.000000E+00
  8.297500E-03 -2.810354E-03  5.000000E-01  8.382915E-03 -2.919674E-03  0.000000E+00  1.256177E-02 -2.587643E-03 -3.437674E-14  1.000225E+00  0.000000E+00
  1.136560E-02 -3.399055E-03  5.000000E-01  1.148200E-02 -3.514320E-03  0.000000E+00  1.359303E-02 -2.433840E-03 -2.328223E-14  9.404960E-01  0.000000E+00
  1.493280E-02 -3.991387E-03  5.000000E-01  1.508523E-02 -4.112634E-03  0.000000E+00  1.360521E-02 -2.149827E-03 -8.237900E-15  8.874844E-01  0.000000E+00
  1.899460E-02 -4.598221E-03  5.000000E-01  1.918805E-02 -4.725597E-03  0.000000E+00  1.341506E-02 -1.945586E-03 -4.021285E-16  8.437566E-01  0.000000E+00
  2.354800E-02 -5.238539E-03  5.000000E-01  2.378743E-02 -5.372382E-03  0.000000E+00  1.337395E-02 -1.831307E-03  1.473278E-15  8.044947E-01  0.000000E+00
  2.860130E-02 -5.912928E-03  5.000000E-01  2.889176E-02 -6.053581E-03  0.000000E+00  1.352012E-02 -1.759097E-03  1.024026E-15  7.663702E-01  0.000000E+00
  3.416500E-02 -6.618316E-03  5.000000E-01  3.451165E-02 -6.766092E-03  0.000000E+00  1.378484E-02 -1.709896E-03  3.560524E-16  7.306834E-01  0.000000E+00
  4.024810E-02 -7.356092E-03  5.000000E-01  4.065618E-02 -7.511319E-03  0.000000E+00  1.409512E-02 -1.676668E-03  2.773349E-17  6.982894E-01  0.000000E+00
  4.686030E-02 -8.127548E-03  5.000000E-01  4.733516E-02 -8.290566E-03  0.000000E+00  1.439708E-02 -1.654965E-03 -4.636707E-17  6.686845E-01  0.000000E+00
  5.401090E-02 -8.937300E-03  5.000000E-01  5.455797E-02 -9.108496E-03  0.000000E+00  1.466586E-02 -1.647859E-03 -3.251598E-17  6.415206E-01  0.000000E+00
  6.170850E-02 -9.795395E-03  5.000000E-01  6.233331E-02 -9.975257E-03  0.000000E+00  1.489780E-02 -1.655550E-03 -1.185580E-17  6.161229E-01  0.000000E+00
  6.996310E-02 -1.071005E-02  5.000000E-01  7.067128E-02 -1.089915E-02  0.000000E+00  1.509688E-02 -1.673700E-03 -2.036255E-18  5.915983E-01  0.000000E+00
  7.878500E-02 -1.168857E-02  5.000000E-01  7.958227E-02 -1.188755E-02  0.000000E+00  1.527445E-02 -1.703761E-03  9.891612E-19  5.677400E-01  0.000000E+00
  8.818390E-02 -1.274253E-02  5.000000E-01  8.907609E-02 -1.295216E-02  0.000000E+00  1.544821E-02 -1.749939E-03 -2.027484E-19  5.443695E-01  0.000000E+00
  9.816930E-02 -1.388488E-02  5.000000E-01  9.916233E-02 -1.410604E-02  0.000000E+00  1.563889E-02 -1.814585E-03 -2.637049E-18  5.207917E-01  0.000000E+00
  1.087500E-01 -1.512946E-02  5.000000E-01  1.098499E-01 -1.536320E-02  0.000000E+00  1.587454E-02 -1.902552E-03 -2.435589E-18  4.962894E-01  0.000000E+00
  1.199340E-01 -1.649407E-02  5.000000E-01  1.211468E-01 -1.674158E-02  0.000000E+00  1.619322E-02 -2.019664E-03 -1.686007E-18  4.699309E-01  0.000000E+00
  1.317280E-01 -1.799618E-02  5.000000E-01  1.330599E-01 -1.825886E-02  0.000000E+00  1.664050E-02 -2.169585E-03 -1.155813E-18  4.402664E-01  0.000000E+00
  1.441380E-01 -1.965027E-02  5.000000E-01  1.455953E-01 -1.992966E-02  0.000000E+00  1.726557E-02 -2.356034E-03 -9.302857E-19  4.056531E-01  0.000000E+00
  1.441380E-01 -1.965027E-02  5.000000E-01  1.455953E-01 -1.992966E-02  0.000000E+00  1.726557E-02 -2.356034E-03 -9.302857E-19  4.056531E-01  0.000000E+00
  1.571670E-01 -2.146757E-02  5.000000E-01  1.587558E-01 -2.176531E-02  0.000000E+00  1.810758E-02 -2.576374E-03  1.846597E-19  3.639864E-01  0.000000E+00
  1.708170E-01 -2.344606E-02  5.000000E-01  1.725437E-01 -2.376378E-02  0.000000E+00  1.917615E-02 -2.809883E-03  1.823204E-18  3.126338E-01  0.000000E+00
  1.850860E-01 -2.555844E-02  5.000000E-01  1.869568E-01 -2.589750E-02  0.000000E+00  2.044012E-02 -3.007747E-03  1.165925E-18  2.491858E-01  0.000000E+00
  1.999720E-01 -2.773784E-02  5.000000E-01  2.019931E-01 -2.809891E-02  0.000000E+00  2.182758E-02 -3.085701E-03 -9.009663E-19  1.718573E-01  0.000000E+00
  2.154670E-01 -2.985720E-02  5.000000E-01  2.176446E-01 -3.023967E-02  0.000000E+00  2.326438E-02 -2.973510E-03 -1.956481E-18  8.222450E-02  0.000000E+00
  2.315610E-01 -3.177778E-02  5.000000E-01  2.339011E-01 -3.217964E-02  0.000000E+00  2.471242E-02 -2.678510E-03 -1.577866E-18 -1.294147E-02  0.000000E+00
  2.482400E-01 -3.341188E-02  5.000000E-01  2.507486E-01 -3.383025E-02  0.000000E+00  2.606399E-02 -2.209495E-03 -8.729121E-19 -1.086491E-01  0.000000E+00
  2.654840E-01 -3.465843E-02  5.000000E-01  2.681667E-01 -3.508939E-02  0.000000E+00  2.702896E-02 -1.532601E-03  1.324658E-18 -2.032077E-01  0.000000E+00
  2.832720E-01 -3.540015E-02  5.000000E-01  2.861344E-01 -3.583859E-02  0.000000E+00  2.717531E-02 -6.552261E-04  1.489346E-18 -2.905438E-01  0.000000E+00
  3.015770E-01 -3.551778E-02  5.000000E-01  3.046242E-01 -3.595741E-02  0.000000E+00  2.610471E-02  3.218911E-04  6.488078E-19 -3.568033E-01  0.000000E+00
  3.203660E-01 -3.490750E-02  5.000000E-01  3.236030E-01 -3.534097E-02  0.000000E+00  2.373842E-02  1.216883E-03  3.787484E-19 -3.829432E-01  0.000000E+00
  3.396030E-01 -3.350090E-02  5.000000E-01  3.430343E-01 -3.392017E-02  0.000000E+00  2.051483E-02  1.841407E-03  1.456669E-18 -3.527078E-01  0.000000E+00
  3.592490E-01 -3.133267E-02  5.000000E-01  3.628787E-01 -3.173004E-02  0.000000E+00  1.716751E-02  2.122336E-03  3.731037E-18 -2.663391E-01  0.000000E+00
  3.792580E-01 -2.853150E-02  5.000000E-01  3.830897E-01 -2.890058E-02  0.000000E+00  1.424487E-02  2.134531E-03  3.459222E-18 -1.471682E-01  0.000000E+00
  3.995810E-01 -2.525648E-02  5.000000E-01  4.036180E-01 -2.559248E-02  0.000000E+00  1.194455E-02  1.995957E-03  4.441610E-18 -2.706646E-02  0.000000E+00
  4.201670E-01 -2.168979E-02  5.000000E-01  4.244119E-01 -2.198978E-02  0.000000E+00  1.023957E-02  1.790190E-03  3.522459E-18  7.357757E-02  0.000000E+00
  4.409600E-01 -1.802764E-02  5.000000E-01  4.454149E-01 -1.829064E-02  0.000000E+00  9.029307E-03  1.567627E-03 -3.422270E-19  1.510573E-01  0.000000E+00
  4.619030E-01 -1.445233E-02  5.000000E-01  4.665694E-01 -1.467923E-02  0.000000E+00  8.231136E-03  1.362513E-03 -1.176494E-18  2.098959E-01  0.000000E+00
  4.829360E-01 -1.108599E-02  5.000000E-01  4.878148E-01 -1.127889E-02  0.000000E+00  7.807054E-03  1.189425E-03 -2.605463E-18  2.554226E-01  0.000000E+00
  5.039990E-01 -8.040164E-03  5.000000E-01  5.090905E-01 -8.202300E-03  0.000000E+00  7.762497E-03  1.042084E-03 -2.903777E-18  2.908331E-01  0.000000E+00
  5.250310E-01 -5.428265E-03  5.000000E-01  5.303349E-01 -5.564023E-03  0.000000E+00  8.117641E-03  9.005846E-04 -1.599110E-18  3.161068E-01  0.000000E+00
  5.459710E-01 -3.361152E-03  5.000000E-01  5.514864E-01 -3.476034E-03  0.000000E+00  8.871156E-03  7.396662E-04 -3.806795E-19  3.294623E-01  0.000000E+00
  5.667600E-01 -1.917154E-03  5.000000E-01  5.724853E-01 -2.017454E-03  0.000000E+00  9.951490E-03  5.636853E-04 -6.523639E-20  3.266109E-01  0.000000E+00
  4.704230E-01  6.446352E-02  5.000000E-01  4.751754E-01  6.503360E-02  0.000000E+00  2.069412E-02  1.504461E-03 -1.721864E-18 -9.131682E-01  0.000000E+00
  4.494880E-01  6.304338E-02  5.000000E-01  4.540290E-01  6.359911E-02  0.000000E+00  2.017909E-02  1.103169E-03 -9.576890E-18 -9.654027E-01  0.000000E+00
  4.286690E-01  6.216784E-02  5.000000E-01  4.329997E-01  6.271474E-02  0.000000E+00  2.071023E-02  6.294201E-04 -1.885186E-17 -1.035405E+00  0.000000E+00
  4.080230E-01  6.178378E-02  5.000000E-01  4.121452E-01  6.232679E-02  0.000000E+00  2.235884E-02  3.620790E-04 -2.601830E-17 -1.084311E+00  0.000000E+00
  3.876050E-01  6.151605E-02  5.000000E-01  3.915210E-01  6.205636E-02  0.000000E+00  2.443619E-02  4.867202E-04 -2.651601E-17 -1.087271E+00  0.000000E+00
  3.674690E-01  6.099836E-02  5.000000E-01  3.711817E-01  6.153344E-02  0.000000E+00  2.593132E-02  1.070728E-03 -2.179937E-17 -1.035947E+00  0.000000E+00
  3.476650E-01  5.989708E-02  5.000000E-01  3.511777E-01  6.042104E-02  0.000000E+00  2.626119E-02  2.077511E-03 -1.305308E-17 -9.295012E-01  0.000000E+00
  3.282390E-01  5.791984E-02  5.000000E-01  3.315555E-01  5.842383E-02  0.000000E+00  2.530590E-02  3.233663E-03 -5.236583E-18 -7.825041E-01  0.000000E+00
  3.092330E-01  5.496796E-02  5.000000E-01  3.123576E-01  5.544215E-02  0.000000E+00  2.310783E-02  3.958511E-03 -1.262478E-18 -6.385526E-01  0.000000E+00
  2.906860E-01  5.143568E-02  5.000000E-01  2.936233E-01  5.187419E-02  0.000000E+00  2.010019E-02  3.943778E-03  5.986276E-19 -5.436382E-01  0.000000E+00
  2.726330E-01  4.775298E-02  5.000000E-01  2.753879E-01  4.815430E-02  0.000000E+00  1.711843E-02  3.455089E-03  2.502092E-18 -5.170113E-01  0.000000E+00
  2.551020E-01  4.424364E-02  5.000000E-01  2.576799E-01  4.460952E-02  0.000000E+00  1.492955E-02  2.870419E-03  3.470163E-18 -5.574000E-01  0.000000E+00
  2.381210E-01  4.111906E-02  5.000000E-01  2.405274E-01  4.145338E-02  0.000000E+00  1.406932E-02  2.421525E-03  6.357052E-18 -6.489922E-01  0.000000E+00
  2.217090E-01  3.848891E-02  5.000000E-01  2.239497E-01  3.879667E-02  0.000000E+00  1.477621E-02  2.155781E-03  8.619856E-18 -7.672843E-01  0.000000E+00
  2.058840E-01  3.638983E-02  5.000000E-01  2.079648E-01  3.667639E-02  0.000000E+00  1.689964E-02  2.020782E-03  1.088739E-17 -8.848127E-01  0.000000E+00
  1.906600E-01  3.475140E-02  5.000000E-01  1.925871E-01  3.502142E-02  0.000000E+00  1.986294E-02  1.987501E-03  2.132657E-17 -9.776386E-01  0.000000E+00
  1.760460E-01  3.339471E-02  5.000000E-01  1.778255E-01  3.365102E-02  0.000000E+00  2.278911E-02  2.049893E-03  4.013461E-17 -1.036139E+00  0.000000E+00
  1.620500E-01  3.217512E-02  5.000000E-01  1.636882E-01  3.241912E-02  0.000000E+00  2.495559E-02  2.187172E-03  7.223742E-17 -1.065230E+00  0.000000E+00
  1.486750E-01  3.099600E-02  5.000000E-01  1.501781E-01  3.122809E-02  0.000000E+00  2.618831E-02  2.382214E-03  1.288485E-16 -1.074296E+00  0.000000E+00
  1.359210E-01  2.979936E-02  5.000000E-01  1.372953E-01  3.001937E-02  0.000000E+00  2.674361E-02  2.624052E-03  2.217456E-16 -1.071586E+00  0.000000E+00
  1.237890E-01  2.855610E-02  5.000000E-01  1.250408E-01  2.876355E-02  0.000000E+00  2.698008E-02  2.908081E-03  3.719590E-16 -1.062588E+00  0.000000E+00
  1.122730E-01  2.725332E-02  5.000000E-01  1.134085E-01  2.744761E-02  0.000000E+00  2.714024E-02  3.231890E-03  6.178865E-16 -1.050541E+00  0.000000E+00
  1.013710E-01  2.589006E-02  5.000000E-01  1.023964E-01  2.607058E-02  0.000000E+00  2.731602E-02  3.588843E-03  1.022077E-15 -1.037443E+00  0.000000E+00
  9.107400E-02  2.447226E-02  5.000000E-01  9.199537E-02  2.463846E-02  0.000000E+00  2.751627E-02  3.973701E-03  1.686738E-15 -1.024390E+00  0.000000E+00
  9.107400E-02  2.447226E-02  5.000000E-01  9.199537E-02  2.463846E-02  0.000000E+00  2.751627E-02  3.973701E-03  1.686738E-15 -1.024390E+00  0.000000E+00
  8.137660E-02  2.300711E-02  5.000000E-01  8.220004E-02  2.315852E-02  0.000000E+00  2.772086E-02  4.380103E-03  2.781333E-15 -1.012183E+00  0.000000E+00
  7.227050E-02  2.150549E-02  5.000000E-01  7.300198E-02  2.164173E-02  0.000000E+00  2.791130E-02  4.800232E-03  4.589624E-15 -1.001653E+00  0.000000E+00
  6.374670E-02  1.997965E-02  5.000000E-01  6.439210E-02  2.010048E-02  0.000000E+00  2.808870E-02  5.235835E-03  7.599895E-15 -9.932530E-01  0.000000E+00
  5.579720E-02  1.843940E-02  5.000000E-01  5.636231E-02  1.854468E-02  0.000000E+00  2.825516E-02  5.686692E-03  1.266135E-14 -9.876257E-01  0.000000E+00
  4.841260E-02  1.689777E-02  5.000000E-01  4.890314E-02  1.698748E-02  0.000000E+00  2.841491E-02  6.153024E-03  2.125334E-14 -9.855021E-01  0.000000E+00
  4.158390E-02  1.536635E-02  5.000000E-01  4.200547E-02  1.544060E-02  0.000000E+00  2.858084E-02  6.647426E-03  3.581621E-14 -9.870868E-01  0.000000E+00
  3.530370E-02  1.385363E-02  5.000000E-01  3.566185E-02  1.391260E-02  0.000000E+00  2.874786E-02  7.172560E-03  5.995005E-14 -9.930358E-01  0.000000E+00
  2.956270E-02  1.237157E-02  5.000000E-01  2.986287E-02  1.241557E-02  0.000000E+00  2.890980E-02  7.733971E-03  9.801924E-14 -1.003937E+00  0.000000E+00
  2.435310E-02  1.092960E-02  5.000000E-01  2.460066E-02  1.095904E-02  0.000000E+00  2.906413E-02  8.360189E-03  1.530613E-13 -1.019258E+00  0.000000E+00
  1.967110E-02  9.532162E-03  5.000000E-01  1.987138E-02  9.547489E-03  0.000000E+00  2.915209E-02  9.048864E-03  2.225755E-13 -1.039462E+00  0.000000E+00
  1.550860E-02  8.189791E-03  5.000000E-01  1.566684E-02  8.191561E-03  0.000000E+00  2.910120E-02  9.793302E-03  2.945281E-13 -1.065078E+00  0.000000E+00
  1.185930E-02  6.910737E-03  5.000000E-01  1.198069E-02  6.899590E-03  0.000000E+00  2.887754E-02  1.064008E-02  3.468879E-13 -1.094350E+00  0.000000E+00
  8.724160E-03  5.697705E-03  5.000000E-01  8.813884E-03  5.674308E-03  0.000000E+00  2.847854E-02  1.161452E-02  3.545785E-13 -1.127728E+00  0.000000E+00
  6.091130E-03  4.564518E-03  5.000000E-01  6.154263E-03  4.529676E-03  0.000000E+00  2.824673E-02  1.297812E-02  3.096060E-13 -1.162700E+00  0.000000E+00
  3.952840E-03  3.521204E-03  5.000000E-01  3.994379E-03  3.475826E-03  0.000000E+00  2.883537E-02  1.558252E-02  2.394396E-13 -1.181763E+00  0.000000E+00
  2.330070E-03  2.566095E-03  5.000000E-01  2.355220E-03  2.511071E-03  0.000000E+00  2.992175E-02  2.005539E-02  1.893209E-13 -1.170819E+00  0.000000E+00
  1.198080E-03  1.723442E-03  5.000000E-01  1.211798E-03  1.659909E-03  0.000000E+00  2.983631E-02  2.586168E-02  1.874412E-13 -1.136497E+00  0.000000E+00
  5.019560E-04  1.028527E-03  5.000000E-01  5.086443E-04  9.579760E-04  0.000000E+00  2.759663E-02  3.243730E-02  2.313183E-13 -1.134031E+00  0.000000E+00
  1.313430E-04  5.073726E-04  5.000000E-01  1.342884E-04  4.315581E-04  0.000000E+00  2.567441E-02  5.172301E-02  3.136925E-13 -1.213072E+00  0.000000E+00
  8.078190E-06  1.870099E-04  5.000000E-01  9.778778E-06  1.079600E-04  0.000000E+00  1.987019E-02  1.276845E-01  4.655224E-13 -1.267897E+00  0.000000E+00
 -1.602820E-06  8.012930E-05  5.000000E-01  0.000000E+00  0.000000E+00  0.000000E+00 -8.932889E-03  2.224989E-01  6.859070E-13 -1.060776E+00  0.000000E+00
  9.141860E-06 -2.793808E-05  5.000000E-01  1.085319E-05 -1.091588E-04  0.000000E+00 -5.073676E-02  1.949184E-01  8.806837E-13 -3.132896E-01  0.000000E+00