 Title = "ADflow Slice Data"
Variables =  "CoordinateX"  "CoordinateY"  "CoordinateZ"  "XoC"  "YoC"  "ZoC" "VelocityX" "VelocityY" "VelocityZ" "CoefPressure" "Mach" 
Zone T= "Slice_0001 None Absolute Regular z = 0.50000000"
 Nodes =          192  Elements=          184  ZONETYPE=FELINESEG
 DATAPACKING=POINT
  5.667600E-01 -1.513439E-02  5.000000E-01  5.724853E-01 -1.524834E-02  0.000000E+00  1.340220E-02  1.531918E-03 -4.777092E-19  9.986490E-02  0.000000E+00
  5.873410E-01 -1.276839E-02  5.000000E-01  5.932741E-01 -1.285845E-02  0.000000E+00  1.289337E-02  1.481075E-03 -1.420777E-18  1.229641E-01  0.000000E+00
  6.076580E-01 -1.043656E-02  5.000000E-01  6.137963E-01 -1.050307E-02  0.000000E+00  1.244704E-02  1.419253E-03 -1.394139E-18  1.450225E-01  0.000000E+00
  6.276600E-01 -8.171658E-03  5.000000E-01  6.340003E-01 -8.215297E-03  0.000000E+00  1.206133E-02  1.350705E-03 -1.905169E-18  1.654334E-01  0.000000E+00
  6.472970E-01 -5.998404E-03  5.000000E-01  6.538356E-01 -6.020095E-03  0.000000E+00  1.172694E-02  1.280401E-03 -2.389573E-18  1.838263E-01  0.000000E+00
  6.665260E-01 -3.928855E-03  5.000000E-01  6.732588E-01 -3.929646E-03  0.000000E+00  1.143352E-02  1.210922E-03 -1.137359E-18  2.004030E-01  0.000000E+00
  6.853050E-01 -1.972690E-03  5.000000E-01  6.922274E-01 -1.953727E-03  0.000000E+00  1.117459E-02  1.139818E-03  3.567348E-19  2.159523E-01  0.000000E+00
  7.035980E-01 -1.467946E-04  5.000000E-01  7.107052E-01 -1.093916E-04  0.000000E+00  1.093962E-02  1.064501E-03  8.349117E-20  2.308248E-01  0.000000E+00
  7.213750E-01  1.537232E-03  5.000000E-01  7.286617E-01  1.591642E-03  0.000000E+00  1.070553E-02  9.853293E-04 -1.999226E-19  2.447090E-01  0.000000E+00
  7.386080E-01  3.075403E-03  5.000000E-01  7.460687E-01  3.145346E-03  0.000000E+00  1.044313E-02  9.043630E-04 -1.900364E-20  2.575463E-01  0.000000E+00
  7.552750E-01  4.473036E-03  5.000000E-01  7.629040E-01  4.557094E-03  0.000000E+00  1.013419E-02  8.257971E-04  6.655463E-19  2.697732E-01  0.000000E+00
  7.713580E-01  5.743117E-03  5.000000E-01  7.791495E-01  5.840002E-03  0.000000E+00  9.791488E-03  7.514087E-04 -1.686316E-19  2.819488E-01  0.000000E+00
  7.868410E-01  6.896711E-03  5.000000E-01  7.947888E-01  7.005245E-03  0.000000E+00  9.482016E-03  6.638487E-04  4.036632E-19  2.957966E-01  0.000000E+00
  8.017160E-01  7.873863E-03  5.000000E-01  8.098140E-01  7.992265E-03  0.000000E+00  9.307016E-03  5.402080E-04  2.403492E-18  3.116555E-01  0.000000E+00
  8.159740E-01  8.591168E-03  5.000000E-01  8.242160E-01  8.716815E-03  0.000000E+00  9.330247E-03  3.859278E-04  1.212690E-18  3.245566E-01  0.000000E+00
  8.296120E-01  9.030952E-03  5.000000E-01  8.379918E-01  9.161040E-03  0.000000E+00  9.555582E-03  2.186722E-04 -3.273983E-19  3.296295E-01  0.000000E+00
  8.426300E-01  9.209445E-03  5.000000E-01  8.511412E-01  9.341335E-03  0.000000E+00  9.959663E-03  4.526462E-05  1.029051E-19  3.268150E-01  0.000000E+00
  8.550290E-01  9.157994E-03  5.000000E-01  8.636654E-01  9.289365E-03  0.000000E+00  1.051426E-02 -1.332938E-04  4.601926E-19  3.180976E-01  0.000000E+00
  8.668160E-01  8.914310E-03  5.000000E-01  8.755715E-01  9.043220E-03  0.000000E+00  1.119044E-02 -3.158581E-04 -3.277209E-19  3.048259E-01  0.000000E+00
  8.779950E-01  8.519642E-03  5.000000E-01  8.868634E-01  8.644566E-03  0.000000E+00  1.195837E-02 -4.998713E-04 -4.694388E-19  2.875603E-01  0.000000E+00
  8.885730E-01  8.013254E-03  5.000000E-01  8.975482E-01  8.133064E-03  0.000000E+00  1.278877E-02 -6.827566E-04  1.915167E-19  2.668889E-01  0.000000E+00
  8.985610E-01  7.428508E-03  5.000000E-01  9.076371E-01  7.542413E-03  0.000000E+00  1.364904E-02 -8.577652E-04  6.901283E-19  2.433331E-01  0.000000E+00
  9.079670E-01  6.799174E-03  5.000000E-01  9.171381E-01  6.906724E-03  0.000000E+00  1.449989E-02 -1.012528E-03  1.313030E-18  2.173547E-01  0.000000E+00
  9.168010E-01  6.157756E-03  5.000000E-01  9.260613E-01  6.258828E-03  0.000000E+00  1.530372E-02 -1.137901E-03  1.790822E-18  1.900113E-01  0.000000E+00
  9.168010E-01  6.157756E-03  5.000000E-01  9.260613E-01  6.258828E-03  0.000000E+00  1.530372E-02 -1.137901E-03  1.790822E-18  1.900113E-01  0.000000E+00
  9.250730E-01  5.529054E-03  5.000000E-01  9.344168E-01  5.623776E-03  0.000000E+00  1.603734E-02 -1.235115E-03  1.826583E-18  1.628274E-01  0.000000E+00
  9.327940E-01  4.927306E-03  5.000000E-01  9.422158E-01  5.015952E-03  0.000000E+00  1.670022E-02 -1.315873E-03  3.897976E-19  1.371165E-01  0.000000E+00
  9.399760E-01  4.355790E-03  5.000000E-01  9.494703E-01  4.438664E-03  0.000000E+00  1.730860E-02 -1.391711E-03 -4.718814E-19  1.131473E-01  0.000000E+00
  9.466320E-01  3.815205E-03  5.000000E-01  9.561935E-01  3.892620E-03  0.000000E+00  1.788264E-02 -1.467162E-03  2.329767E-18  9.018204E-02  0.000000E+00
  9.527730E-01  3.306374E-03  5.000000E-01  9.623965E-01  3.378650E-03  0.000000E+00  1.844703E-02 -1.548719E-03  8.304822E-18  6.768135E-02  0.000000E+00
  9.584110E-01  2.827156E-03  5.000000E-01  9.680915E-01  2.894593E-03  0.000000E+00  1.903446E-02 -1.647029E-03  8.066085E-18  4.541286E-02  0.000000E+00
  9.635570E-01  2.374319E-03  5.000000E-01  9.732895E-01  2.437183E-03  0.000000E+00  1.967882E-02 -1.767973E-03 -1.751587E-17  2.265893E-02  0.000000E+00
  9.682220E-01  1.946794E-03  5.000000E-01  9.780016E-01  2.005339E-03  0.000000E+00  2.041226E-02 -1.912186E-03 -7.313280E-17 -1.669010E-03  0.000000E+00
  9.724140E-01  1.545859E-03  5.000000E-01  9.822359E-01  1.600356E-03  0.000000E+00  2.128279E-02 -2.087675E-03 -8.378770E-17 -2.820157E-02  0.000000E+00
  9.761430E-01  1.171440E-03  5.000000E-01  9.860026E-01  1.222156E-03  0.000000E+00  2.237254E-02 -2.311601E-03  1.561347E-16 -5.739104E-02  0.000000E+00
  9.794160E-01  8.242704E-04  5.000000E-01  9.893086E-01  8.714800E-04  0.000000E+00  2.378352E-02 -2.597386E-03  7.690137E-16 -9.031870E-02  0.000000E+00
  9.822400E-01  5.074292E-04  5.000000E-01  9.921611E-01  5.514392E-04  0.000000E+00  2.556667E-02 -2.947226E-03  1.073376E-15 -1.284379E-01  0.000000E+00
  9.846200E-01  2.260650E-04  5.000000E-01  9.945652E-01  2.672334E-04  0.000000E+00  2.759096E-02 -3.347904E-03 -1.155226E-15 -1.720978E-01  0.000000E+00
  9.865620E-01 -1.453612E-05  5.000000E-01  9.965268E-01  2.420256E-05  0.000000E+00  2.941005E-02 -3.711639E-03 -8.142472E-15 -2.194078E-01  0.000000E+00
  9.880680E-01 -2.086060E-04  5.000000E-01  9.980480E-01 -1.718272E-04  0.000000E+00  2.987618E-02 -3.826775E-03 -1.461231E-14 -2.766182E-01  0.000000E+00
  9.891420E-01 -3.514240E-04  5.000000E-01  9.991328E-01 -3.160875E-04  0.000000E+00  2.812918E-02 -3.911238E-03  4.801762E-15 -3.435050E-01  0.000000E+00
  9.897860E-01 -4.389487E-04  5.000000E-01  9.997833E-01 -4.044961E-04  0.000000E+00  3.788719E-02 -4.013387E-03  8.481528E-14 -2.894033E-01  0.000000E+00
  9.900000E-01 -4.683023E-04  5.000000E-01  9.999995E-01 -4.341461E-04  0.000000E+00  2.618911E-02  5.267635E-03  7.644228E-14 -5.820325E-01  0.000000E+00
  9.900000E-01 -1.843754E-04  5.000000E-01  9.999995E-01 -1.473519E-04  0.000000E+00  1.229826E-03 -7.885351E-03  6.641810E-15 -8.088285E-01  0.000000E+00
  9.900000E-01  9.955148E-05  5.000000E-01  9.999995E-01  1.394423E-04  0.000000E+00 -4.469034E-04 -2.274892E-02  3.177479E-15 -6.283769E-01  0.000000E+00
  9.900000E-01  3.834784E-04  5.000000E-01  9.999995E-01  4.262365E-04  0.000000E+00 -1.436096E-04 -8.862945E-03  2.175788E-15 -6.283318E-01  0.000000E+00
  9.900000E-01  6.674052E-04  5.000000E-01  9.999995E-01  7.130308E-04  0.000000E+00  4.646727E-04 -5.229834E-03  2.673006E-15 -6.882140E-01  0.000000E+00
  9.900000E-01  9.513321E-04  5.000000E-01  9.999995E-01  9.998250E-04  0.000000E+00  6.797542E-03 -6.632506E-03  3.472693E-15 -6.299627E-01  0.000000E+00
  9.900000E-01  9.513321E-04  5.000000E-01  9.999995E-01  9.998250E-04  0.000000E+00  6.797542E-03 -6.632506E-03  3.472693E-15 -6.299627E-01  0.000000E+00
  9.897890E-01  1.017904E-03  5.000000E-01  9.997864E-01  1.067069E-03  0.000000E+00  9.016079E-03 -3.469698E-03  3.258407E-15 -5.524013E-01  0.000000E+00
  9.891540E-01  1.218674E-03  5.000000E-01  9.991450E-01  1.269867E-03  0.000000E+00  4.568050E-03 -1.351363E-03  2.101984E-15 -5.710039E-01  0.000000E+00
  9.880950E-01  1.555408E-03  5.000000E-01  9.980753E-01  1.610001E-03  0.000000E+00  3.025115E-03 -9.610276E-04  1.068585E-15 -5.705635E-01  0.000000E+00
  9.866100E-01  2.031333E-03  5.000000E-01  9.965753E-01  2.090733E-03  0.000000E+00  1.984126E-03 -6.498984E-04  4.639266E-16 -5.626630E-01  0.000000E+00
  9.846960E-01  2.650662E-03  5.000000E-01  9.946419E-01  2.716317E-03  0.000000E+00  9.963001E-04 -3.235902E-04  1.871721E-16 -5.590244E-01  0.000000E+00
  9.823490E-01  3.418251E-03  5.000000E-01  9.922712E-01  3.491657E-03  0.000000E+00  1.853778E-04 -5.931444E-05  6.905479E-17 -5.580440E-01  0.000000E+00
  9.795670E-01  4.338749E-03  5.000000E-01  9.894611E-01  4.421450E-03  0.000000E+00 -4.274675E-04  1.426113E-04  1.382076E-17 -5.582848E-01  0.000000E+00
  9.763420E-01  5.417935E-03  5.000000E-01  9.862036E-01  5.511535E-03  0.000000E+00 -8.713008E-04  2.931869E-04 -1.036343E-17 -5.597284E-01  0.000000E+00
  9.726710E-01  6.659544E-03  5.000000E-01  9.824955E-01  6.765683E-03  0.000000E+00 -1.170426E-03  3.976358E-04 -1.492548E-17 -5.622614E-01  0.000000E+00
  9.685460E-01  8.066753E-03  5.000000E-01  9.783288E-01  8.187104E-03  0.000000E+00 -1.342118E-03  4.594386E-04 -1.063463E-17 -5.654646E-01  0.000000E+00
  9.639600E-01  9.641708E-03  5.000000E-01  9.736965E-01  9.777964E-03  0.000000E+00 -1.402999E-03  4.831564E-04 -4.781197E-18 -5.688301E-01  0.000000E+00
  9.589060E-01  1.138655E-02  5.000000E-01  9.685915E-01  1.154043E-02  0.000000E+00 -1.373467E-03  4.750543E-04 -1.444788E-18 -5.718821E-01  0.000000E+00
  9.533750E-01  1.330247E-02  5.000000E-01  9.630046E-01  1.347570E-02  0.000000E+00 -1.279373E-03  4.434543E-04 -5.738526E-20 -5.742568E-01  0.000000E+00
  9.473580E-01  1.538822E-02  5.000000E-01  9.569269E-01  1.558251E-02  0.000000E+00 -1.150537E-03  3.985029E-04  1.102540E-18 -5.757687E-01  0.000000E+00
  9.408450E-01  1.764046E-02  5.000000E-01  9.503481E-01  1.785750E-02  0.000000E+00 -1.017168E-03  3.508966E-04  6.196866E-19 -5.764468E-01  0.000000E+00
  9.338260E-01  2.005391E-02  5.000000E-01  9.432582E-01  2.029532E-02  0.000000E+00 -9.059598E-04  3.101293E-04 -5.381082E-19 -5.765192E-01  0.000000E+00
  9.262910E-01  2.262012E-02  5.000000E-01  9.356471E-01  2.288744E-02  0.000000E+00 -8.374879E-04  2.832290E-04 -1.008997E-18 -5.763382E-01  0.000000E+00
  9.182290E-01  2.532627E-02  5.000000E-01  9.275037E-01  2.562092E-02  0.000000E+00 -8.256516E-04  2.742768E-04  1.168631E-19 -5.762744E-01  0.000000E+00
  9.096280E-01  2.815465E-02  5.000000E-01  9.188158E-01  2.847786E-02  0.000000E+00 -8.781286E-04  2.845123E-04  1.140183E-18 -5.766882E-01  0.000000E+00
  9.004770E-01  3.108178E-02  5.000000E-01  9.095724E-01  3.143456E-02  0.000000E+00 -9.967442E-04  3.125587E-04  1.211980E-18 -5.778951E-01  0.000000E+00
  8.907650E-01  3.407673E-02  5.000000E-01  8.997623E-01  3.445975E-02  0.000000E+00 -1.178718E-03  3.541048E-04  6.206262E-19 -5.799807E-01  0.000000E+00
  8.804800E-01  3.709812E-02  5.000000E-01  8.893735E-01  3.751166E-02  0.000000E+00 -1.417247E-03  4.015012E-04  1.848255E-19 -5.828452E-01  0.000000E+00
  8.696090E-01  4.009018E-02  5.000000E-01  8.783927E-01  4.053393E-02  0.000000E+00 -1.698113E-03  4.453200E-04 -1.628170E-18 -5.864241E-01  0.000000E+00
  8.696090E-01  4.009018E-02  5.000000E-01  8.783927E-01  4.053393E-02  0.000000E+00 -1.698113E-03  4.453200E-04 -1.628170E-18 -5.864241E-01  0.000000E+00
  8.581400E-01  4.298086E-02  5.000000E-01  8.668079E-01  4.345380E-02  0.000000E+00 -2.001320E-03  4.766428E-04 -1.393616E-18 -5.897357E-01  0.000000E+00
  8.460600E-01  4.568599E-02  5.000000E-01  8.546059E-01  4.618625E-02  0.000000E+00 -2.309106E-03  4.853458E-04  1.230171E-18 -5.905808E-01  0.000000E+00
  8.333640E-01  4.812572E-02  5.000000E-01  8.417817E-01  4.865062E-02  0.000000E+00 -2.566735E-03  4.509101E-04  1.635188E-19 -5.921145E-01  0.000000E+00
  8.200460E-01  5.022450E-02  5.000000E-01  8.283292E-01  5.077060E-02  0.000000E+00 -2.541938E-03  3.451703E-04 -4.886096E-19 -6.135202E-01  0.000000E+00
  8.061050E-01  5.191495E-02  5.000000E-01  8.142474E-01  5.247811E-02  0.000000E+00 -1.654728E-03  1.628080E-04  1.257991E-18 -6.840453E-01  0.000000E+00
  7.915460E-01  5.317137E-02  5.000000E-01  7.995413E-01  5.374722E-02  0.000000E+00  9.765809E-04 -5.162756E-05  1.946574E-18 -8.098776E-01  0.000000E+00
  7.763770E-01  5.403304E-02  5.000000E-01  7.842191E-01  5.461760E-02  0.000000E+00  5.965508E-03 -2.159087E-04  2.482437E-18 -9.512729E-01  0.000000E+00
  7.606070E-01  5.456932E-02  5.000000E-01  7.682899E-01  5.515930E-02  0.000000E+00  1.258160E-02 -2.331140E-04  1.492386E-18 -1.050036E+00  0.000000E+00
  7.442510E-01  5.478752E-02  5.000000E-01  7.517687E-01  5.537969E-02  0.000000E+00  1.843604E-02 -4.656950E-05 -4.346386E-18 -1.081742E+00  0.000000E+00
  7.273250E-01  5.470542E-02  5.000000E-01  7.346718E-01  5.529676E-02  0.000000E+00  2.145306E-02  2.539672E-04 -1.063275E-17 -1.067608E+00  0.000000E+00
  7.098490E-01  5.437538E-02  5.000000E-01  7.170193E-01  5.496339E-02  0.000000E+00  2.168533E-02  4.854597E-04 -1.373664E-17 -1.042667E+00  0.000000E+00
  6.918480E-01  5.389328E-02  5.000000E-01  6.988365E-01  5.447642E-02  0.000000E+00  2.054797E-02  5.362709E-04 -1.381649E-17 -1.031539E+00  0.000000E+00
  6.733520E-01  5.340899E-02  5.000000E-01  6.801537E-01  5.398724E-02  0.000000E+00  1.934154E-02  3.956955E-04 -1.106821E-17 -1.044970E+00  0.000000E+00
  6.543930E-01  5.312176E-02  5.000000E-01  6.610032E-01  5.369711E-02  0.000000E+00  1.876342E-02  1.291094E-04 -7.525875E-18 -1.079518E+00  0.000000E+00
  6.350090E-01  5.315112E-02  5.000000E-01  6.414235E-01  5.372677E-02  0.000000E+00  1.904084E-02 -1.466062E-04 -5.110115E-18 -1.119866E+00  0.000000E+00
  6.152440E-01  5.343008E-02  5.000000E-01  6.214589E-01  5.400854E-02  0.000000E+00  1.996771E-02 -3.481105E-04 -4.050468E-18 -1.151527E+00  0.000000E+00
  5.951420E-01  5.384894E-02  5.000000E-01  6.011539E-01  5.443164E-02  0.000000E+00  2.109020E-02 -4.390075E-04 -4.599347E-18 -1.167553E+00  0.000000E+00
  5.747530E-01  5.427769E-02  5.000000E-01  5.805590E-01  5.486472E-02  0.000000E+00  2.204097E-02 -3.839113E-04 -4.958915E-18 -1.165484E+00  0.000000E+00
  5.541290E-01  5.457199E-02  5.000000E-01  5.597267E-01  5.516199E-02  0.000000E+00  2.265108E-02 -1.712179E-04 -5.371068E-18 -1.146743E+00  0.000000E+00
  5.333260E-01  5.459453E-02  5.000000E-01  5.387136E-01  5.518476E-02  0.000000E+00  2.285939E-02  1.273752E-04 -6.262786E-18 -1.118676E+00  0.000000E+00
  5.124010E-01  5.433410E-02  5.000000E-01  5.175773E-01  5.492170E-02  0.000000E+00  2.271601E-02  4.061438E-04 -6.034805E-18 -1.090753E+00  0.000000E+00
  4.914140E-01  5.383982E-02  5.000000E-01  4.963783E-01  5.442243E-02  0.000000E+00  2.240329E-02  6.212927E-04 -6.131200E-18 -1.068342E+00  0.000000E+00
  4.704230E-01  5.316657E-02  5.000000E-01  4.751754E-01  5.374238E-02  0.000000E+00  2.209872E-02  7.708724E-04 -6.670804E-18 -1.053475E+00  0.000000E+00
  1.696960E-04 -4.811607E-04  5.000000E-01  1.730287E-04 -4.471344E-04  0.000000E+00 -6.436957E-02  9.282743E-02 -6.711270E-14  5.407538E-01  0.000000E+00
  8.054360E-04 -9.784217E-04  5.000000E-01  8.151890E-04 -9.494172E-04  0.000000E+00 -4.693715E-02  3.286968E-02 -5.216085E-14  1.106740E+00  0.000000E+00
  1.973980E-03 -1.585469E-03  5.000000E-01  1.995534E-03 -1.562595E-03  0.000000E+00 -2.105619E-02  1.048412E-02 -2.873917E-14  1.176599E+00  0.000000E+00
  3.614630E-03 -2.300266E-03  5.000000E-01  3.652753E-03 -2.284611E-03  0.000000E+00 -4.059833E-03  1.775167E-03 -9.869255E-15  1.152950E+00  0.000000E+00
  5.721210E-03 -3.131228E-03  5.000000E-01  5.780607E-03 -3.123965E-03  0.000000E+00  5.016737E-03 -1.862842E-03 -8.077896E-17  1.122623E+00  0.000000E+00
  8.297500E-03 -4.075866E-03  5.000000E-01  8.382914E-03 -4.078142E-03  0.000000E+00  9.327040E-03 -3.267693E-03  2.491222E-15  1.078300E+00  0.000000E+00
  1.136560E-02 -5.114566E-03  5.000000E-01  1.148200E-02 -5.127332E-03  0.000000E+00  1.109594E-02 -3.619159E-03  1.833841E-15  1.023878E+00  0.000000E+00
  1.493280E-02 -6.236078E-03  5.000000E-01  1.508522E-02 -6.260170E-03  0.000000E+00  1.169182E-02 -3.584792E-03  6.931510E-16  9.693699E-01  0.000000E+00
  1.899460E-02 -7.448705E-03  5.000000E-01  1.918804E-02 -7.485043E-03  0.000000E+00  1.194837E-02 -3.514845E-03  5.044851E-17  9.186781E-01  0.000000E+00
  2.354800E-02 -8.768489E-03  5.000000E-01  2.378743E-02 -8.818155E-03  0.000000E+00  1.228281E-02 -3.506824E-03 -1.209239E-16  8.687979E-01  0.000000E+00
  2.860130E-02 -1.019094E-02  5.000000E-01  2.889176E-02 -1.025497E-02  0.000000E+00  1.281390E-02 -3.545759E-03 -8.923047E-17  8.170849E-01  0.000000E+00
  3.416500E-02 -1.170497E-02  5.000000E-01  3.451165E-02 -1.178429E-02  0.000000E+00  1.352324E-02 -3.613117E-03 -3.125877E-17  7.647634E-01  0.000000E+00
  4.024810E-02 -1.330140E-02  5.000000E-01  4.065618E-02 -1.339684E-02  0.000000E+00  1.435220E-02 -3.689698E-03 -1.258497E-18  7.127440E-01  0.000000E+00
  4.686030E-02 -1.496794E-02  5.000000E-01  4.733516E-02 -1.508021E-02  0.000000E+00  1.523639E-02 -3.755669E-03  5.186390E-18  6.608109E-01  0.000000E+00
  5.401090E-02 -1.669289E-02  5.000000E-01  5.455797E-02 -1.682259E-02  0.000000E+00  1.612907E-02 -3.802629E-03  3.656890E-18  6.090328E-01  0.000000E+00
  6.170850E-02 -1.846766E-02  5.000000E-01  6.233331E-02 -1.861527E-02  0.000000E+00  1.700460E-02 -3.822255E-03  2.952118E-18  5.570375E-01  0.000000E+00
  6.996310E-02 -2.027791E-02  5.000000E-01  7.067127E-02 -2.044381E-02  0.000000E+00  1.784925E-02 -3.802047E-03  2.666942E-18  5.041219E-01  0.000000E+00
  7.878500E-02 -2.210403E-02  5.000000E-01  7.958226E-02 -2.228837E-02  0.000000E+00  1.865988E-02 -3.738393E-03  1.642674E-18  4.504834E-01  0.000000E+00
  8.818390E-02 -2.392690E-02  5.000000E-01  8.907608E-02 -2.412965E-02  0.000000E+00  1.943794E-02 -3.631385E-03 -6.879902E-19  3.965562E-01  0.000000E+00
  9.816930E-02 -2.572398E-02  5.000000E-01  9.916232E-02 -2.594488E-02  0.000000E+00  2.017798E-02 -3.476377E-03 -1.866841E-18  3.424005E-01  0.000000E+00
  1.087500E-01 -2.746842E-02  5.000000E-01  1.098499E-01 -2.770693E-02  0.000000E+00  2.086384E-02 -3.269889E-03 -1.181171E-18  2.884381E-01  0.000000E+00
  1.199340E-01 -2.913292E-02  5.000000E-01  1.211468E-01 -2.938825E-02  0.000000E+00  2.146070E-02 -3.006907E-03 -8.751838E-19  2.353724E-01  0.000000E+00
  1.317280E-01 -3.068543E-02  5.000000E-01  1.330599E-01 -3.095643E-02  0.000000E+00  2.190795E-02 -2.678597E-03 -9.646131E-19  1.840509E-01  0.000000E+00
  1.441380E-01 -3.208862E-02  5.000000E-01  1.455952E-01 -3.237379E-02  0.000000E+00  2.213450E-02 -2.284921E-03 -2.093029E-19  1.362561E-01  0.000000E+00
  1.441380E-01 -3.208862E-02  5.000000E-01  1.455952E-01 -3.237379E-02  0.000000E+00  2.213450E-02 -2.284921E-03 -2.093029E-19  1.362561E-01  0.000000E+00
  1.571670E-01 -3.330604E-02  5.000000E-01  1.587558E-01 -3.360351E-02  0.000000E+00  2.208925E-02 -1.839574E-03  7.319959E-19  9.456248E-02  0.000000E+00
  1.708170E-01 -3.430281E-02  5.000000E-01  1.725437E-01 -3.461035E-02  0.000000E+00  2.178175E-02 -1.372234E-03 -1.614611E-19  6.169944E-02  0.000000E+00
  1.850860E-01 -3.505525E-02  5.000000E-01  1.869568E-01 -3.537039E-02  0.000000E+00  2.131584E-02 -9.358379E-04 -1.182199E-18  4.001436E-02  0.000000E+00
  1.999720E-01 -3.557197E-02  5.000000E-01  2.019931E-01 -3.589232E-02  0.000000E+00  2.087203E-02 -5.986538E-04 -4.103012E-19  3.023894E-02  0.000000E+00
  2.154670E-01 -3.591855E-02  5.000000E-01  2.176446E-01 -3.624240E-02  0.000000E+00  2.059330E-02 -3.870595E-04  5.402845E-20  2.800430E-02  0.000000E+00
  2.315610E-01 -3.616516E-02  5.000000E-01  2.339011E-01 -3.649151E-02  0.000000E+00  2.046728E-02 -2.391861E-04  7.485918E-20  2.323490E-02  0.000000E+00
  2.482400E-01 -3.630346E-02  5.000000E-01  2.507486E-01 -3.663120E-02  0.000000E+00  2.039949E-02 -8.878231E-05  8.303133E-19  1.045135E-02  0.000000E+00
  2.654840E-01 -3.631141E-02  5.000000E-01  2.681667E-01 -3.663923E-02  0.000000E+00  2.032287E-02  7.917017E-05  1.325670E-18 -7.194623E-03  0.000000E+00
  2.832720E-01 -3.616351E-02  5.000000E-01  2.861343E-01 -3.648983E-02  0.000000E+00  2.019991E-02  2.624053E-04  5.581476E-19 -2.467634E-02  0.000000E+00
  3.015770E-01 -3.583836E-02  5.000000E-01  3.046242E-01 -3.616140E-02  0.000000E+00  2.001475E-02  4.515693E-04  7.014224E-19 -3.858390E-02  0.000000E+00
  3.203660E-01 -3.532253E-02  5.000000E-01  3.236030E-01 -3.564036E-02  0.000000E+00  1.976523E-02  6.363015E-04  1.239982E-18 -4.775984E-02  0.000000E+00
  3.396030E-01 -3.461058E-02  5.000000E-01  3.430342E-01 -3.492123E-02  0.000000E+00  1.945454E-02  8.100291E-04  7.245550E-19 -5.253636E-02  0.000000E+00
  3.592490E-01 -3.370037E-02  5.000000E-01  3.628786E-01 -3.400182E-02  0.000000E+00  1.908547E-02  9.706801E-04 -2.801696E-19 -5.367611E-02  0.000000E+00
  3.792580E-01 -3.259057E-02  5.000000E-01  3.830897E-01 -3.288081E-02  0.000000E+00  1.866083E-02  1.116953E-03 -2.135100E-20 -5.155635E-02  0.000000E+00
  3.995810E-01 -3.128282E-02  5.000000E-01  4.036179E-01 -3.155985E-02  0.000000E+00  1.818440E-02  1.246428E-03  1.162050E-18 -4.608814E-02  0.000000E+00
  4.201670E-01 -2.978296E-02  5.000000E-01  4.244118E-01 -3.004485E-02  0.000000E+00  1.765904E-02  1.357368E-03  1.013155E-18 -3.717611E-02  0.000000E+00
  4.409600E-01 -2.809887E-02  5.000000E-01  4.454148E-01 -2.834375E-02  0.000000E+00  1.708722E-02  1.449158E-03  1.294811E-20 -2.493169E-02  0.000000E+00
  4.619030E-01 -2.624000E-02  5.000000E-01  4.665693E-01 -2.646611E-02  0.000000E+00  1.647689E-02  1.519790E-03 -5.174602E-19 -9.440671E-03  0.000000E+00
  4.829360E-01 -2.422381E-02  5.000000E-01  4.878147E-01 -2.442955E-02  0.000000E+00  1.584266E-02  1.566688E-03 -1.138686E-18  9.112114E-03  0.000000E+00
  5.039990E-01 -2.207429E-02  5.000000E-01  5.090904E-01 -2.225833E-02  0.000000E+00  1.520182E-02  1.589101E-03 -1.840888E-18  3.017312E-02  0.000000E+00
  5.250310E-01 -1.982134E-02  5.000000E-01  5.303348E-01 -1.998263E-02  0.000000E+00  1.457135E-02  1.588484E-03 -2.185493E-18  5.290433E-02  0.000000E+00
  5.459710E-01 -1.749755E-02  5.000000E-01  5.514863E-01 -1.763537E-02  0.000000E+00  1.396632E-02  1.568442E-03 -7.899891E-19  7.635474E-02  0.000000E+00
  5.667600E-01 -1.513439E-02  5.000000E-01  5.724853E-01 -1.524834E-02  0.000000E+00  1.340220E-02  1.531918E-03 -4.777092E-19  9.986490E-02  0.000000E+00
  4.704230E-01  5.316657E-02  5.000000E-01  4.751754E-01  5.374238E-02  0.000000E+00  2.209872E-02  7.708724E-04 -6.670804E-18 -1.053475E+00  0.000000E+00
  4.494880E-01  5.237400E-02  5.000000E-01  4.540289E-01  5.294181E-02  0.000000E+00  2.190325E-02  8.618744E-04 -7.621972E-18 -1.046348E+00  0.000000E+00
  4.286690E-01  5.152180E-02  5.000000E-01  4.329997E-01  5.208100E-02  0.000000E+00  2.186890E-02  9.200900E-04 -9.145518E-18 -1.044635E+00  0.000000E+00
  4.080230E-01  5.063104E-02  5.000000E-01  4.121452E-01  5.118124E-02  0.000000E+00  2.200334E-02  9.838504E-04 -1.040808E-17 -1.044425E+00  0.000000E+00
  3.876050E-01  4.968817E-02  5.000000E-01  3.915210E-01  5.022884E-02  0.000000E+00  2.224660E-02  1.070512E-03 -1.228915E-17 -1.043183E+00  0.000000E+00
  3.674690E-01  4.868117E-02  5.000000E-01  3.711816E-01  4.921168E-02  0.000000E+00  2.251320E-02  1.177101E-03 -1.323853E-17 -1.040259E+00  0.000000E+00
  3.476650E-01  4.760130E-02  5.000000E-01  3.511776E-01  4.812091E-02  0.000000E+00  2.274934E-02  1.299383E-03 -1.213486E-17 -1.035705E+00  0.000000E+00
  3.282390E-01  4.644202E-02  5.000000E-01  3.315555E-01  4.694991E-02  0.000000E+00  2.293905E-02  1.434829E-03 -1.202595E-17 -1.029841E+00  0.000000E+00
  3.092330E-01  4.519887E-02  5.000000E-01  3.123575E-01  4.569422E-02  0.000000E+00  2.308506E-02  1.579008E-03 -1.243738E-17 -1.023234E+00  0.000000E+00
  2.906860E-01  4.387468E-02  5.000000E-01  2.936232E-01  4.435665E-02  0.000000E+00  2.319645E-02  1.727484E-03 -1.232638E-17 -1.016442E+00  0.000000E+00
  2.726330E-01  4.247466E-02  5.000000E-01  2.753879E-01  4.294249E-02  0.000000E+00  2.328408E-02  1.879578E-03 -1.228290E-17 -1.009691E+00  0.000000E+00
  2.551020E-01  4.100385E-02  5.000000E-01  2.576799E-01  4.145682E-02  0.000000E+00  2.335500E-02  2.036340E-03 -1.257226E-17 -1.002970E+00  0.000000E+00
  2.381210E-01  3.946778E-02  5.000000E-01  2.405274E-01  3.990524E-02  0.000000E+00  2.341439E-02  2.201079E-03 -1.376967E-17 -9.961319E-01  0.000000E+00
  2.217090E-01  3.786830E-02  5.000000E-01  2.239496E-01  3.828961E-02  0.000000E+00  2.346182E-02  2.374938E-03 -1.371429E-17 -9.894871E-01  0.000000E+00
  2.058840E-01  3.620764E-02  5.000000E-01  2.079648E-01  3.661218E-02  0.000000E+00  2.347766E-02  2.536621E-03 -1.319625E-17 -9.852528E-01  0.000000E+00
  1.906600E-01  3.451317E-02  5.000000E-01  1.925871E-01  3.490060E-02  0.000000E+00  2.345447E-02  2.649857E-03 -1.572327E-17 -9.868243E-01  0.000000E+00
  1.760460E-01  3.283510E-02  5.000000E-01  1.778255E-01  3.320558E-02  0.000000E+00  2.345928E-02  2.719291E-03 -2.111560E-17 -9.947245E-01  0.000000E+00
  1.620500E-01  3.119741E-02  5.000000E-01  1.636881E-01  3.155135E-02  0.000000E+00  2.358346E-02  2.786940E-03 -3.077250E-17 -1.006206E+00  0.000000E+00
  1.486750E-01  2.960221E-02  5.000000E-01  1.501781E-01  2.994004E-02  0.000000E+00  2.384789E-02  2.882379E-03 -4.677741E-17 -1.018364E+00  0.000000E+00
  1.359210E-01  2.804125E-02  5.000000E-01  1.372953E-01  2.836332E-02  0.000000E+00  2.420244E-02  3.013491E-03 -7.176944E-17 -1.029457E+00  0.000000E+00
  1.237890E-01  2.650570E-02  5.000000E-01  1.250407E-01  2.681226E-02  0.000000E+00  2.457676E-02  3.177665E-03 -1.136128E-16 -1.038847E+00  0.000000E+00
  1.122730E-01  2.498602E-02  5.000000E-01  1.134084E-01  2.527723E-02  0.000000E+00  2.491956E-02  3.369758E-03 -1.836919E-16 -1.046633E+00  0.000000E+00
  1.013710E-01  2.347654E-02  5.000000E-01  1.023964E-01  2.375251E-02  0.000000E+00  2.520815E-02  3.583295E-03 -3.025135E-16 -1.053426E+00  0.000000E+00
  9.107400E-02  2.197524E-02  5.000000E-01  9.199536E-02  2.223605E-02  0.000000E+00  2.544620E-02  3.817483E-03 -5.049166E-16 -1.059800E+00  0.000000E+00
  9.107400E-02  2.197524E-02  5.000000E-01  9.199536E-02  2.223605E-02  0.000000E+00  2.544620E-02  3.817483E-03 -5.049166E-16 -1.059800E+00  0.000000E+00
  8.137660E-02  2.047987E-02  5.000000E-01  8.220003E-02  2.072558E-02  0.000000E+00  2.564176E-02  4.070688E-03 -8.522703E-16 -1.066503E+00  0.000000E+00
  7.227050E-02  1.899283E-02  5.000000E-01  7.300197E-02  1.922352E-02  0.000000E+00  2.579919E-02  4.336979E-03 -1.453560E-15 -1.074546E+00  0.000000E+00
  6.374670E-02  1.751923E-02  5.000000E-01  6.439209E-02  1.773504E-02  0.000000E+00  2.592925E-02  4.617476E-03 -2.493866E-15 -1.084600E+00  0.000000E+00
  5.579720E-02  1.606236E-02  5.000000E-01  5.636231E-02  1.626345E-02  0.000000E+00  2.603251E-02  4.908337E-03 -4.281274E-15 -1.097571E+00  0.000000E+00
  4.841260E-02  1.463075E-02  5.000000E-01  4.890313E-02  1.481739E-02  0.000000E+00  2.610709E-02  5.204300E-03 -7.293730E-15 -1.114448E+00  0.000000E+00
  4.158390E-02  1.323222E-02  5.000000E-01  4.200547E-02  1.340473E-02  0.000000E+00  2.615809E-02  5.511802E-03 -1.215904E-14 -1.135622E+00  0.000000E+00
  3.530370E-02  1.187160E-02  5.000000E-01  3.566185E-02  1.203038E-02  0.000000E+00  2.616650E-02  5.825522E-03 -1.947542E-14 -1.161931E+00  0.000000E+00
  2.956270E-02  1.055843E-02  5.000000E-01  2.986287E-02  1.070394E-02  0.000000E+00  2.610507E-02  6.140635E-03 -2.936514E-14 -1.194041E+00  0.000000E+00
  2.435310E-02  9.299225E-03  5.000000E-01  2.460066E-02  9.432022E-03  0.000000E+00  2.593375E-02  6.468991E-03 -4.068611E-14 -1.231364E+00  0.000000E+00
  1.967110E-02  8.094485E-03  5.000000E-01  1.987137E-02  8.215116E-03  0.000000E+00  2.551800E-02  6.781199E-03 -5.033887E-14 -1.274210E+00  0.000000E+00
  1.550860E-02  6.951375E-03  5.000000E-01  1.566684E-02  7.060462E-03  0.000000E+00  2.468000E-02  7.028835E-03 -5.388508E-14 -1.322887E+00  0.000000E+00
  1.185930E-02  5.873561E-03  5.000000E-01  1.198068E-02  5.971762E-03  0.000000E+00  2.332248E-02  7.204704E-03 -4.800363E-14 -1.375547E+00  0.000000E+00
  8.724160E-03  4.857234E-03  5.000000E-01  8.813883E-03  4.945172E-03  0.000000E+00  2.157226E-02  7.336674E-03 -3.340065E-14 -1.431731E+00  0.000000E+00
  6.091130E-03  3.910602E-03  5.000000E-01  6.154263E-03  3.988980E-03  0.000000E+00  2.031883E-02  7.814425E-03 -1.639458E-14 -1.486842E+00  0.000000E+00
  3.952840E-03  3.036395E-03  5.000000E-01  3.994378E-03  3.105945E-03  0.000000E+00  2.113495E-02  9.729547E-03 -5.778990E-15 -1.523956E+00  0.000000E+00
  2.330070E-03  2.221840E-03  5.000000E-01  2.355220E-03  2.283164E-03  0.000000E+00  2.424363E-02  1.419364E-02 -5.364457E-15 -1.531595E+00  0.000000E+00
  1.198080E-03  1.485067E-03  5.000000E-01  1.211798E-03  1.538950E-03  0.000000E+00  2.760847E-02  2.139199E-02 -1.184113E-14 -1.519723E+00  0.000000E+00
  5.019560E-04  8.591592E-04  5.000000E-01  5.086442E-04  9.067212E-04  0.000000E+00  3.042359E-02  3.351230E-02 -2.054988E-14 -1.531227E+00  0.000000E+00
  1.313430E-04  3.760587E-04  5.000000E-01  1.342884E-04  4.187419E-04  0.000000E+00  3.507942E-02  7.039043E-02 -2.970249E-14 -1.566413E+00  0.000000E+00
  8.078190E-06  6.792999E-05  5.000000E-01  9.778777E-06  1.075015E-04  0.000000E+00  3.055652E-02  1.733212E-01 -4.119336E-14 -1.484890E+00  0.000000E+00
 -1.602820E-06 -3.849671E-05  5.000000E-01  0.000000E+00  0.000000E+00  0.000000E+00 -4.941022E-03  2.521616E-01 -5.274160E-14 -1.190941E+00  0.000000E+00
  9.141860E-06 -1.485478E-04  5.000000E-01  1.085319E-05 -1.111625E-04  0.000000E+00 -4.976330E-02  1.968011E-01 -6.387552E-14 -4.688868E-01  0.000000E+00