 Title = "ADflow Slice Data"
Variables =  "CoordinateX"  "CoordinateY"  "CoordinateZ"  "XoC"  "YoC"  "ZoC" "VelocityX" "VelocityY" "VelocityZ" "CoefPressure" "Mach" 
Zone T= "Slice_0001 None Absolute Regular z = 0.50000000"
 Nodes =          192  Elements=          184  ZONETYPE=FELINESEG
 DATAPACKING=POINT
  5.667600E-01 -1.656725E-02  5.000000E-01  5.724853E-01 -1.670776E-02  0.000000E+00  1.354895E-02  1.662321E-03  9.011891E-19  6.992405E-02  0.000000E+00
  5.873410E-01 -1.398996E-02  5.000000E-01  5.932741E-01 -1.410444E-02  0.000000E+00  1.275721E-02  1.608527E-03  2.276892E-20  1.019183E-01  0.000000E+00
  6.076580E-01 -1.140982E-02  5.000000E-01  6.137963E-01 -1.149824E-02  0.000000E+00  1.206803E-02  1.526547E-03  7.225908E-20  1.344492E-01  0.000000E+00
  6.276600E-01 -8.891700E-03  5.000000E-01  6.340003E-01 -8.954690E-03  0.000000E+00  1.151145E-02  1.429728E-03  6.540384E-19  1.643324E-01  0.000000E+00
  6.472970E-01 -6.488865E-03  5.000000E-01  6.538356E-01 -6.527589E-03  0.000000E+00  1.109132E-02  1.328599E-03 -3.229906E-19  1.899344E-01  0.000000E+00
  6.665260E-01 -4.237486E-03  5.000000E-01  6.732588E-01 -4.253473E-03  0.000000E+00  1.079191E-02  1.230361E-03 -5.693570E-19  2.110384E-01  0.000000E+00
  6.853050E-01 -2.156003E-03  5.000000E-01  6.922274E-01 -2.150970E-03  0.000000E+00  1.058404E-02  1.138221E-03  1.262752E-18  2.282797E-01  0.000000E+00
  7.035980E-01 -2.500941E-04  5.000000E-01  7.107052E-01 -2.258136E-04  0.000000E+00  1.042978E-02  1.051450E-03 -2.029720E-19  2.426421E-01  0.000000E+00
  7.213750E-01  1.481288E-03  5.000000E-01  7.286617E-01  1.523053E-03  0.000000E+00  1.028531E-02  9.678168E-04 -1.594543E-18  2.550288E-01  0.000000E+00
  7.386080E-01  3.045146E-03  5.000000E-01  7.460687E-01  3.102705E-03  0.000000E+00  1.010832E-02  8.866127E-04 -7.129557E-19  2.662125E-01  0.000000E+00
  7.552750E-01  4.455441E-03  5.000000E-01  7.629041E-01  4.527242E-03  0.000000E+00  9.873367E-03  8.100500E-04  1.185037E-18  2.769412E-01  0.000000E+00
  7.713580E-01  5.731401E-03  5.000000E-01  7.791495E-01  5.816088E-03  0.000000E+00  9.590040E-03  7.386696E-04  2.498399E-18  2.878215E-01  0.000000E+00
  7.868410E-01  6.888245E-03  5.000000E-01  7.947888E-01  6.984615E-03  0.000000E+00  9.324868E-03  6.544658E-04  1.309753E-18  3.005855E-01  0.000000E+00
  8.017160E-01  7.867751E-03  5.000000E-01  8.098141E-01  7.974013E-03  0.000000E+00  9.180727E-03  5.340531E-04  8.093428E-20  3.156019E-01  0.000000E+00
  8.159740E-01  8.586769E-03  5.000000E-01  8.242160E-01  8.700292E-03  0.000000E+00  9.224610E-03  3.824589E-04 -4.045896E-19  3.279008E-01  0.000000E+00
  8.296120E-01  9.027788E-03  5.000000E-01  8.379918E-01  9.145765E-03  0.000000E+00  9.463811E-03  2.172644E-04 -1.005423E-19  3.325607E-01  0.000000E+00
  8.426300E-01  9.207171E-03  5.000000E-01  8.511412E-01  9.326959E-03  0.000000E+00  9.877539E-03  4.543239E-05 -4.131312E-19  3.294620E-01  0.000000E+00
  8.550290E-01  9.156362E-03  5.000000E-01  8.636655E-01  9.275637E-03  0.000000E+00  1.043923E-02 -1.319103E-04 -5.861796E-19  3.205401E-01  0.000000E+00
  8.668160E-01  8.913141E-03  5.000000E-01  8.755715E-01  9.029960E-03  0.000000E+00  1.112098E-02 -3.135474E-04  4.873430E-19  3.071133E-01  0.000000E+00
  8.779950E-01  8.518808E-03  5.000000E-01  8.868634E-01  8.631644E-03  0.000000E+00  1.189358E-02 -4.968772E-04  1.134362E-18  2.897256E-01  0.000000E+00
  8.885730E-01  8.012661E-03  5.000000E-01  8.975482E-01  8.120386E-03  0.000000E+00  1.272811E-02 -6.792841E-04  1.074974E-18  2.689549E-01  0.000000E+00
  8.985610E-01  7.428090E-03  5.000000E-01  9.076371E-01  7.529911E-03  0.000000E+00  1.359224E-02 -8.540031E-04  5.104680E-19  2.453157E-01  0.000000E+00
  9.079670E-01  6.798881E-03  5.000000E-01  9.171381E-01  6.894348E-03  0.000000E+00  1.444693E-02 -1.008671E-03  5.334387E-19  2.192643E-01  0.000000E+00
  9.168010E-01  6.157551E-03  5.000000E-01  9.260613E-01  6.246542E-03  0.000000E+00  1.525477E-02 -1.134130E-03  1.466547E-18  1.918508E-01  0.000000E+00
  9.168010E-01  6.157551E-03  5.000000E-01  9.260613E-01  6.246542E-03  0.000000E+00  1.525477E-02 -1.134130E-03  1.466547E-18  1.918508E-01  0.000000E+00
  9.250730E-01  5.528913E-03  5.000000E-01  9.344168E-01  5.611555E-03  0.000000E+00  1.599264E-02 -1.231568E-03  1.811149E-18  1.645915E-01  0.000000E+00
  9.327940E-01  4.927210E-03  5.000000E-01  9.422158E-01  5.003776E-03  0.000000E+00  1.665999E-02 -1.312620E-03  2.224071E-18  1.387945E-01  0.000000E+00
  9.399760E-01  4.355725E-03  5.000000E-01  9.494703E-01  4.426519E-03  0.000000E+00  1.727291E-02 -1.388779E-03  2.125446E-18  1.147289E-01  0.000000E+00
  9.466320E-01  3.815162E-03  5.000000E-01  9.561935E-01  3.880497E-03  0.000000E+00  1.785147E-02 -1.464557E-03  2.147649E-18  9.166091E-02  0.000000E+00
  9.527730E-01  3.306346E-03  5.000000E-01  9.623966E-01  3.366542E-03  0.000000E+00  1.842027E-02 -1.546437E-03  2.057652E-18  6.905484E-02  0.000000E+00
  9.584110E-01  2.827138E-03  5.000000E-01  9.680915E-01  2.882495E-03  0.000000E+00  1.901188E-02 -1.645051E-03  9.352209E-19  4.668087E-02  0.000000E+00
  9.635570E-01  2.374307E-03  5.000000E-01  9.732895E-01  2.425091E-03  0.000000E+00  1.966014E-02 -1.766277E-03 -1.626564E-18  2.382369E-02  0.000000E+00
  9.682220E-01  1.946786E-03  5.000000E-01  9.780016E-01  1.993252E-03  0.000000E+00  2.039709E-02 -1.910754E-03 -6.827512E-18 -6.025924E-04  0.000000E+00
  9.724140E-01  1.545854E-03  5.000000E-01  9.822359E-01  1.588272E-03  0.000000E+00  2.127068E-02 -2.086480E-03 -9.338300E-18 -2.722613E-02  0.000000E+00
  9.761430E-01  1.171437E-03  5.000000E-01  9.860026E-01  1.210073E-03  0.000000E+00  2.236292E-02 -2.310602E-03  1.063996E-17 -5.649680E-02  0.000000E+00
  9.794160E-01  8.242681E-04  5.000000E-01  9.893086E-01  8.593984E-04  0.000000E+00  2.377567E-02 -2.596525E-03  7.011923E-17 -8.949264E-02  0.000000E+00
  9.822400E-01  5.074277E-04  5.000000E-01  9.921611E-01  5.393583E-04  0.000000E+00  2.555966E-02 -2.946416E-03  1.119398E-16 -1.276631E-01  0.000000E+00
  9.846200E-01  2.260639E-04  5.000000E-01  9.945652E-01  2.551531E-04  0.000000E+00  2.758368E-02 -3.347021E-03 -1.047393E-16 -1.713537E-01  0.000000E+00
  9.865620E-01 -1.453681E-05  5.000000E-01  9.965268E-01  1.212251E-05  0.000000E+00  2.940116E-02 -3.710499E-03 -8.987512E-16 -2.186734E-01  0.000000E+00
  9.880680E-01 -2.086065E-04  5.000000E-01  9.980480E-01 -1.839070E-04  0.000000E+00  2.986413E-02 -3.825202E-03 -1.785489E-15 -2.758820E-01  0.000000E+00
  9.891420E-01 -3.514242E-04  5.000000E-01  9.991328E-01 -3.281671E-04  0.000000E+00  2.811284E-02 -3.909058E-03  3.873195E-16 -3.427499E-01  0.000000E+00
  9.897860E-01 -4.389489E-04  5.000000E-01  9.997834E-01 -4.165757E-04  0.000000E+00  3.786512E-02 -4.010966E-03  1.085732E-14 -2.885595E-01  0.000000E+00
  9.900000E-01 -4.683024E-04  5.000000E-01  9.999995E-01 -4.462256E-04  0.000000E+00  2.617504E-02  5.269139E-03  9.632431E-15 -5.811752E-01  0.000000E+00
  9.900000E-01 -1.843756E-04  5.000000E-01  9.999995E-01 -1.594314E-04  0.000000E+00  1.228695E-03 -7.882114E-03  1.463837E-15 -8.079865E-01  0.000000E+00
  9.900000E-01  9.955134E-05  5.000000E-01  9.999995E-01  1.273628E-04  0.000000E+00 -4.466167E-04 -2.274384E-02  3.022569E-15 -6.275079E-01  0.000000E+00
  9.900000E-01  3.834782E-04  5.000000E-01  9.999995E-01  4.141571E-04  0.000000E+00 -1.434874E-04 -8.860005E-03  3.648364E-15 -6.274851E-01  0.000000E+00
  9.900000E-01  6.674051E-04  5.000000E-01  9.999995E-01  7.009513E-04  0.000000E+00  4.644758E-04 -5.227608E-03  3.557350E-15 -6.873789E-01  0.000000E+00
  9.900000E-01  9.513320E-04  5.000000E-01  9.999995E-01  9.877455E-04  0.000000E+00  6.794610E-03 -6.629972E-03  3.310492E-15 -6.291246E-01  0.000000E+00
  9.900000E-01  9.513320E-04  5.000000E-01  9.999995E-01  9.877455E-04  0.000000E+00  6.794610E-03 -6.629972E-03  3.310492E-15 -6.291246E-01  0.000000E+00
  9.897890E-01  1.017904E-03  5.000000E-01  9.997864E-01  1.054989E-03  0.000000E+00  9.012083E-03 -3.468257E-03  2.794835E-15 -5.515632E-01  0.000000E+00
  9.891540E-01  1.218674E-03  5.000000E-01  9.991450E-01  1.257787E-03  0.000000E+00  4.566506E-03 -1.350891E-03  1.836036E-15 -5.701783E-01  0.000000E+00
  9.880950E-01  1.555407E-03  5.000000E-01  9.980753E-01  1.597921E-03  0.000000E+00  3.025353E-03 -9.611032E-04  1.008346E-15 -5.697406E-01  0.000000E+00
  9.866100E-01  2.031332E-03  5.000000E-01  9.965753E-01  2.078653E-03  0.000000E+00  1.985693E-03 -6.504016E-04  4.843064E-16 -5.618370E-01  0.000000E+00
  9.846960E-01  2.650661E-03  5.000000E-01  9.946419E-01  2.704236E-03  0.000000E+00  9.987368E-04 -3.243828E-04  2.071480E-16 -5.581941E-01  0.000000E+00
  9.823490E-01  3.418250E-03  5.000000E-01  9.922712E-01  3.479577E-03  0.000000E+00  1.883145E-04 -6.028089E-05  7.200830E-17 -5.572076E-01  0.000000E+00
  9.795670E-01  4.338746E-03  5.000000E-01  9.894612E-01  4.409369E-03  0.000000E+00 -4.242901E-04  1.415533E-04  9.168984E-18 -5.574408E-01  0.000000E+00
  9.763420E-01  5.417931E-03  5.000000E-01  9.862036E-01  5.499452E-03  0.000000E+00 -8.680425E-04  2.920897E-04 -1.443585E-17 -5.588760E-01  0.000000E+00
  9.726710E-01  6.659539E-03  5.000000E-01  9.824955E-01  6.753599E-03  0.000000E+00 -1.167166E-03  3.965267E-04 -1.678683E-17 -5.614005E-01  0.000000E+00
  9.685460E-01  8.066745E-03  5.000000E-01  9.783289E-01  8.175017E-03  0.000000E+00 -1.338878E-03  4.583273E-04 -1.092385E-17 -5.645956E-01  0.000000E+00
  9.639600E-01  9.641695E-03  5.000000E-01  9.736965E-01  9.765872E-03  0.000000E+00 -1.399769E-03  4.820415E-04 -4.331968E-18 -5.679536E-01  0.000000E+00
  9.589060E-01  1.138653E-02  5.000000E-01  9.685915E-01  1.152833E-02  0.000000E+00 -1.370230E-03  4.739317E-04 -1.467937E-18 -5.709989E-01  0.000000E+00
  9.533750E-01  1.330244E-02  5.000000E-01  9.630046E-01  1.346359E-02  0.000000E+00 -1.276125E-03  4.423250E-04  1.333357E-19 -5.733675E-01  0.000000E+00
  9.473580E-01  1.538817E-02  5.000000E-01  9.569269E-01  1.557038E-02  0.000000E+00 -1.147304E-03  3.973789E-04  9.738543E-19 -5.748741E-01  0.000000E+00
  9.408450E-01  1.764039E-02  5.000000E-01  9.503481E-01  1.784534E-02  0.000000E+00 -1.014011E-03  3.498027E-04 -3.204764E-19 -5.755481E-01  0.000000E+00
  9.338260E-01  2.005379E-02  5.000000E-01  9.432582E-01  2.028312E-02  0.000000E+00 -9.029804E-04  3.091032E-04 -4.809576E-19 -5.756178E-01  0.000000E+00
  9.262910E-01  2.261994E-02  5.000000E-01  9.356471E-01  2.287518E-02  0.000000E+00 -8.348177E-04  2.823181E-04 -5.685721E-19 -5.754360E-01  0.000000E+00
  9.182290E-01  2.532600E-02  5.000000E-01  9.275037E-01  2.560857E-02  0.000000E+00 -8.234521E-04  2.735350E-04 -6.094478E-19 -5.753731E-01  0.000000E+00
  9.096280E-01  2.815425E-02  5.000000E-01  9.188158E-01  2.846539E-02  0.000000E+00 -8.765832E-04  2.839946E-04 -7.772556E-20 -5.757897E-01  0.000000E+00
  9.004770E-01  3.108120E-02  5.000000E-01  9.095724E-01  3.142189E-02  0.000000E+00 -9.960401E-04  3.123120E-04 -1.012233E-18 -5.770018E-01  0.000000E+00
  8.907650E-01  3.407589E-02  5.000000E-01  8.997623E-01  3.444683E-02  0.000000E+00 -1.179019E-03  3.541543E-04 -1.805352E-18 -5.790955E-01  0.000000E+00
  8.804800E-01  3.709690E-02  5.000000E-01  8.893735E-01  3.749835E-02  0.000000E+00 -1.418662E-03  4.018306E-04 -5.913737E-19 -5.819715E-01  0.000000E+00
  8.696090E-01  4.008842E-02  5.000000E-01  8.783927E-01  4.052008E-02  0.000000E+00 -1.700653E-03  4.458792E-04  6.752913E-19 -5.855650E-01  0.000000E+00
  8.696090E-01  4.008842E-02  5.000000E-01  8.783927E-01  4.052008E-02  0.000000E+00 -1.700653E-03  4.458792E-04  6.752913E-19 -5.855650E-01  0.000000E+00
  8.581400E-01  4.297833E-02  5.000000E-01  8.668079E-01  4.343917E-02  0.000000E+00 -2.004955E-03  4.773866E-04  4.636451E-19 -5.888800E-01  0.000000E+00
  8.460600E-01  4.568236E-02  5.000000E-01  8.546059E-01  4.617051E-02  0.000000E+00 -2.313938E-03  4.861502E-04  5.257409E-19 -5.896939E-01  0.000000E+00
  8.333640E-01  4.812054E-02  5.000000E-01  8.417817E-01  4.863331E-02  0.000000E+00 -2.572433E-03  4.514621E-04  1.765559E-18 -5.912378E-01  0.000000E+00
  8.200460E-01  5.021712E-02  5.000000E-01  8.283292E-01  5.075106E-02  0.000000E+00 -2.545599E-03  3.450324E-04  1.440620E-18 -6.129133E-01  0.000000E+00
  8.061050E-01  5.190444E-02  5.000000E-01  8.142474E-01  5.245542E-02  0.000000E+00 -1.648143E-03  1.617745E-04  6.804491E-19 -6.840643E-01  0.000000E+00
  7.915460E-01  5.315647E-02  5.000000E-01  7.995413E-01  5.372009E-02  0.000000E+00  1.007305E-03 -5.295291E-05  1.568711E-18 -8.105518E-01  0.000000E+00
  7.763770E-01  5.401203E-02  5.000000E-01  7.842192E-01  5.458430E-02  0.000000E+00  6.031164E-03 -2.153758E-04  2.060236E-18 -9.520894E-01  0.000000E+00
  7.606070E-01  5.454002E-02  5.000000E-01  7.682899E-01  5.511762E-02  0.000000E+00  1.267526E-02 -2.273131E-04 -1.671320E-19 -1.050315E+00  0.000000E+00
  7.442510E-01  5.474723E-02  5.000000E-01  7.517687E-01  5.532692E-02  0.000000E+00  1.853290E-02 -3.307717E-05 -4.739654E-18 -1.081147E+00  0.000000E+00
  7.273250E-01  5.465105E-02  5.000000E-01  7.346718E-01  5.522977E-02  0.000000E+00  2.153293E-02  2.744427E-04 -9.724450E-18 -1.066199E+00  0.000000E+00
  7.098490E-01  5.430367E-02  5.000000E-01  7.170193E-01  5.487888E-02  0.000000E+00  2.174815E-02  5.099611E-04 -1.344081E-17 -1.040655E+00  0.000000E+00
  6.918480E-01  5.380117E-02  5.000000E-01  6.988365E-01  5.437130E-02  0.000000E+00  2.060456E-02  5.620229E-04 -1.309715E-17 -1.029150E+00  0.000000E+00
  6.733520E-01  5.329415E-02  5.000000E-01  6.801537E-01  5.385917E-02  0.000000E+00  1.940136E-02  4.208580E-04 -1.095039E-17 -1.042424E+00  0.000000E+00
  6.543930E-01  5.298320E-02  5.000000E-01  6.610033E-01  5.354508E-02  0.000000E+00  1.883230E-02  1.534028E-04 -8.999332E-18 -1.076909E+00  0.000000E+00
  6.350090E-01  5.298760E-02  5.000000E-01  6.414235E-01  5.354952E-02  0.000000E+00  1.912233E-02 -1.201120E-04 -5.855002E-18 -1.116941E+00  0.000000E+00
  6.152440E-01  5.323601E-02  5.000000E-01  6.214589E-01  5.380044E-02  0.000000E+00  2.005964E-02 -3.128301E-04 -4.497076E-18 -1.147649E+00  0.000000E+00
  5.951420E-01  5.361246E-02  5.000000E-01  6.011539E-01  5.418069E-02  0.000000E+00  2.118070E-02 -3.857936E-04 -5.589097E-18 -1.161794E+00  0.000000E+00
  5.747530E-01  5.397905E-02  5.000000E-01  5.805590E-01  5.455098E-02  0.000000E+00  2.211012E-02 -3.019002E-04 -5.566261E-18 -1.156726E+00  0.000000E+00
  5.541290E-01  5.418232E-02  5.000000E-01  5.597267E-01  5.475631E-02  0.000000E+00  2.267380E-02 -5.165237E-05 -4.330055E-18 -1.134013E+00  0.000000E+00
  5.333260E-01  5.407742E-02  5.000000E-01  5.387136E-01  5.465035E-02  0.000000E+00  2.280349E-02  2.796726E-04 -4.115928E-18 -1.102057E+00  0.000000E+00
  5.124010E-01  5.366399E-02  5.000000E-01  5.175773E-01  5.423274E-02  0.000000E+00  2.255270E-02  5.698447E-04 -4.369660E-18 -1.071873E+00  0.000000E+00
  4.914140E-01  5.301180E-02  5.000000E-01  4.963784E-01  5.357397E-02  0.000000E+00  2.212741E-02  7.704916E-04 -4.388538E-18 -1.049862E+00  0.000000E+00
  4.704230E-01  5.219791E-02  5.000000E-01  4.751754E-01  5.275186E-02  0.000000E+00  2.173348E-02  8.824767E-04 -5.134463E-18 -1.038507E+00  0.000000E+00
  1.696960E-04 -4.668378E-04  5.000000E-01  1.730287E-04 -4.447463E-04  0.000000E+00 -6.464804E-02  9.243960E-02 -5.920401E-14  5.493355E-01  0.000000E+00
  8.054360E-04 -9.558384E-04  5.000000E-01  8.151890E-04 -9.386852E-04  0.000000E+00 -4.693936E-02  3.228079E-02 -4.604751E-14  1.112922E+00  0.000000E+00
  1.973980E-03 -1.547436E-03  5.000000E-01  1.995534E-03 -1.536257E-03  0.000000E+00 -2.082713E-02  1.009855E-02 -2.535097E-14  1.177675E+00  0.000000E+00
  3.614630E-03 -2.239919E-03  5.000000E-01  3.652753E-03 -2.235733E-03  0.000000E+00 -3.771221E-03  1.604254E-03 -8.682948E-15  1.150902E+00  0.000000E+00
  5.721210E-03 -3.041374E-03  5.000000E-01  5.780607E-03 -3.045282E-03  0.000000E+00  5.288619E-03 -1.890722E-03 -4.909872E-17  1.118957E+00  0.000000E+00
  8.297500E-03 -3.948959E-03  5.000000E-01  8.382914E-03 -3.962033E-03  0.000000E+00  9.560698E-03 -3.211413E-03  2.210081E-15  1.073699E+00  0.000000E+00
  1.136560E-02 -4.942729E-03  5.000000E-01  1.148200E-02 -4.965839E-03  0.000000E+00  1.128427E-02 -3.514893E-03  1.623840E-15  1.018862E+00  0.000000E+00
  1.493280E-02 -6.011498E-03  5.000000E-01  1.508522E-02 -6.045401E-03  0.000000E+00  1.183490E-02 -3.453553E-03  6.152352E-16  9.644992E-01  0.000000E+00
  1.899460E-02 -7.163867E-03  5.000000E-01  1.918804E-02 -7.209408E-03  0.000000E+00  1.205026E-02 -3.366278E-03  4.582927E-17  9.144382E-01  0.000000E+00
  2.354800E-02 -8.416221E-03  5.000000E-01  2.378743E-02 -8.474409E-03  0.000000E+00  1.234599E-02 -3.343089E-03 -1.070486E-16  8.655590E-01  0.000000E+00
  2.860130E-02 -9.764628E-03  5.000000E-01  2.889176E-02 -9.836434E-03  0.000000E+00  1.283598E-02 -3.365935E-03 -7.933107E-17  8.151859E-01  0.000000E+00
  3.416500E-02 -1.119887E-02  5.000000E-01  3.451165E-02 -1.128516E-02  0.000000E+00  1.349796E-02 -3.416120E-03 -2.820504E-17  7.645656E-01  0.000000E+00
  4.024810E-02 -1.271088E-02  5.000000E-01  4.065618E-02 -1.281244E-02  0.000000E+00  1.427157E-02 -3.475681E-03 -1.136533E-18  7.146195E-01  0.000000E+00
  4.686030E-02 -1.428982E-02  5.000000E-01  4.733516E-02 -1.440732E-02  0.000000E+00  1.509253E-02 -3.526585E-03  6.240302E-18  6.651255E-01  0.000000E+00
  5.401090E-02 -1.592574E-02  5.000000E-01  5.455797E-02 -1.605976E-02  0.000000E+00  1.591536E-02 -3.562016E-03  3.535910E-18  6.161364E-01  0.000000E+00
  6.170850E-02 -1.761200E-02  5.000000E-01  6.233331E-02 -1.776306E-02  0.000000E+00  1.671592E-02 -3.575060E-03  6.272010E-19  5.672750E-01  0.000000E+00
  6.996310E-02 -1.933671E-02  5.000000E-01  7.067127E-02 -1.950518E-02  0.000000E+00  1.748181E-02 -3.554660E-03  9.517954E-19  5.178431E-01  0.000000E+00
  7.878500E-02 -2.108312E-02  5.000000E-01  7.958226E-02 -2.126923E-02  0.000000E+00  1.821109E-02 -3.498316E-03  6.944792E-19  4.680166E-01  0.000000E+00
  8.818390E-02 -2.283542E-02  5.000000E-01  8.907608E-02 -2.303922E-02  0.000000E+00  1.890683E-02 -3.407174E-03 -9.484615E-19  4.181801E-01  0.000000E+00
  9.816930E-02 -2.457490E-02  5.000000E-01  9.916232E-02 -2.479627E-02  0.000000E+00  1.956684E-02 -3.278049E-03 -1.732733E-18  3.683158E-01  0.000000E+00
  1.087500E-01 -2.627916E-02  5.000000E-01  1.098499E-01 -2.651775E-02  0.000000E+00  2.018122E-02 -3.109072E-03 -2.839987E-19  3.187050E-01  0.000000E+00
  1.199340E-01 -2.792588E-02  5.000000E-01  1.211468E-01 -2.818110E-02  0.000000E+00  2.072651E-02 -2.896928E-03  9.892464E-19  2.698224E-01  0.000000E+00
  1.317280E-01 -2.948855E-02  5.000000E-01  1.330599E-01 -2.975954E-02  0.000000E+00  2.115961E-02 -2.633949E-03  8.736678E-21  2.221621E-01  0.000000E+00
  1.441380E-01 -3.093576E-02  5.000000E-01  1.455953E-01 -3.122137E-02  0.000000E+00  2.142949E-02 -2.318663E-03 -3.240940E-19  1.769660E-01  0.000000E+00
  1.441380E-01 -3.093576E-02  5.000000E-01  1.455953E-01 -3.122137E-02  0.000000E+00  2.142949E-02 -2.318663E-03 -3.240940E-19  1.769660E-01  0.000000E+00
  1.571670E-01 -3.223678E-02  5.000000E-01  1.587558E-01 -3.253553E-02  0.000000E+00  2.149912E-02 -1.959038E-03  6.357737E-19  1.360804E-01  0.000000E+00
  1.708170E-01 -3.336114E-02  5.000000E-01  1.725437E-01 -3.367125E-02  0.000000E+00  2.137455E-02 -1.574352E-03  9.886382E-19  1.014469E-01  0.000000E+00
  1.850860E-01 -3.428613E-02  5.000000E-01  1.869568E-01 -3.460557E-02  0.000000E+00  2.113159E-02 -1.203965E-03  1.167033E-18  7.484915E-02  0.000000E+00
  1.999720E-01 -3.501419E-02  5.000000E-01  2.019931E-01 -3.534099E-02  0.000000E+00  2.090556E-02 -9.035262E-04  6.949832E-19  5.703484E-02  0.000000E+00
  2.154670E-01 -3.559282E-02  5.000000E-01  2.176446E-01 -3.592547E-02  0.000000E+00  2.080540E-02 -6.975469E-04 -3.858427E-19  4.486471E-02  0.000000E+00
  2.315610E-01 -3.607252E-02  5.000000E-01  2.339011E-01 -3.641000E-02  0.000000E+00  2.081850E-02 -5.368414E-04 -1.027001E-18  3.059787E-02  0.000000E+00
  2.482400E-01 -3.643907E-02  5.000000E-01  2.507486E-01 -3.678026E-02  0.000000E+00  2.086266E-02 -3.653612E-04 -3.736498E-19  1.003975E-02  0.000000E+00
  2.654840E-01 -3.666514E-02  5.000000E-01  2.681667E-01 -3.700861E-02  0.000000E+00  2.087059E-02 -1.687181E-04  7.548982E-19 -1.407478E-02  0.000000E+00
  2.832720E-01 -3.671899E-02  5.000000E-01  2.861343E-01 -3.706300E-02  0.000000E+00  2.079465E-02  5.095501E-05  1.679928E-19 -3.727575E-02  0.000000E+00
  3.015770E-01 -3.657242E-02  5.000000E-01  3.046242E-01 -3.691495E-02  0.000000E+00  2.060735E-02  2.827088E-04  3.149170E-19 -5.611897E-02  0.000000E+00
  3.203660E-01 -3.620539E-02  5.000000E-01  3.236030E-01 -3.654422E-02  0.000000E+00  2.030232E-02  5.125499E-04  9.688087E-19 -6.891855E-02  0.000000E+00
  3.396030E-01 -3.560747E-02  5.000000E-01  3.430342E-01 -3.594026E-02  0.000000E+00  1.989481E-02  7.271276E-04  3.228236E-19 -7.531703E-02  0.000000E+00
  3.592490E-01 -3.477930E-02  5.000000E-01  3.628786E-01 -3.510373E-02  0.000000E+00  1.941668E-02  9.171273E-04  1.296223E-18 -7.580039E-02  0.000000E+00
  3.792580E-01 -3.372987E-02  5.000000E-01  3.830897E-01 -3.404369E-02  0.000000E+00  1.890657E-02  1.079300E-03  7.985691E-19 -7.142736E-02  0.000000E+00
  3.995810E-01 -3.247297E-02  5.000000E-01  4.036179E-01 -3.277411E-02  0.000000E+00  1.840117E-02  1.213897E-03 -2.480596E-19 -6.342518E-02  0.000000E+00
  4.201670E-01 -3.102788E-02  5.000000E-01  4.244118E-01 -3.131442E-02  0.000000E+00  1.792433E-02  1.322865E-03  1.489403E-18 -5.296908E-02  0.000000E+00
  4.409600E-01 -2.941661E-02  5.000000E-01  4.454148E-01 -2.968688E-02  0.000000E+00  1.747362E-02  1.411586E-03  5.505524E-19 -4.120420E-02  0.000000E+00
  4.619030E-01 -2.765505E-02  5.000000E-01  4.665693E-01 -2.790753E-02  0.000000E+00  1.701438E-02  1.489911E-03 -5.381238E-19 -2.910821E-02  0.000000E+00
  4.829360E-01 -2.573962E-02  5.000000E-01  4.878147E-01 -2.597275E-02  0.000000E+00  1.649943E-02  1.561938E-03 -3.208731E-19 -1.633796E-02  0.000000E+00
  5.039990E-01 -2.366721E-02  5.000000E-01  5.090904E-01 -2.387941E-02  0.000000E+00  1.589396E-02  1.621498E-03 -1.499808E-18 -1.121285E-03  0.000000E+00
  5.250310E-01 -2.144132E-02  5.000000E-01  5.303348E-01 -2.163105E-02  0.000000E+00  1.518384E-02  1.661813E-03 -1.478987E-18  1.805206E-02  0.000000E+00
  5.459710E-01 -1.906992E-02  5.000000E-01  5.514863E-01 -1.923570E-02  0.000000E+00  1.438359E-02  1.678445E-03  3.879143E-19  4.164790E-02  0.000000E+00
  5.667600E-01 -1.656725E-02  5.000000E-01  5.724853E-01 -1.670776E-02  0.000000E+00  1.354895E-02  1.662321E-03  9.011891E-19  6.992405E-02  0.000000E+00
  4.704230E-01  5.219791E-02  5.000000E-01  4.751754E-01  5.275186E-02  0.000000E+00  2.173348E-02  8.824767E-04 -5.134463E-18 -1.038507E+00  0.000000E+00
  4.494880E-01  5.130479E-02  5.000000E-01  4.540289E-01  5.184972E-02  0.000000E+00  2.149487E-02  9.172367E-04 -6.655243E-18 -1.037813E+00  0.000000E+00
  4.286690E-01  5.041354E-02  5.000000E-01  4.329997E-01  5.094947E-02  0.000000E+00  2.148452E-02  9.129716E-04 -8.527305E-18 -1.044019E+00  0.000000E+00
  4.080230E-01  4.954487E-02  5.000000E-01  4.121452E-01  5.007202E-02  0.000000E+00  2.171473E-02  9.259904E-04 -9.758882E-18 -1.050985E+00  0.000000E+00
  3.876050E-01  4.866566E-02  5.000000E-01  3.915210E-01  4.918394E-02  0.000000E+00  2.209297E-02  9.821120E-04 -1.116733E-17 -1.054711E+00  0.000000E+00
  3.674690E-01  4.774414E-02  5.000000E-01  3.711816E-01  4.825310E-02  0.000000E+00  2.248553E-02  1.078125E-03 -1.276989E-17 -1.054110E+00  0.000000E+00
  3.476650E-01  4.675283E-02  5.000000E-01  3.511776E-01  4.725179E-02  0.000000E+00  2.280682E-02  1.208430E-03 -1.267918E-17 -1.049340E+00  0.000000E+00
  3.282390E-01  4.566822E-02  5.000000E-01  3.315555E-01  4.615623E-02  0.000000E+00  2.302789E-02  1.364646E-03 -1.211440E-17 -1.041484E+00  0.000000E+00
  3.092330E-01  4.447692E-02  5.000000E-01  3.123575E-01  4.495289E-02  0.000000E+00  2.314818E-02  1.526128E-03 -1.148124E-17 -1.032740E+00  0.000000E+00
  2.906860E-01  4.319271E-02  5.000000E-01  2.936232E-01  4.365571E-02  0.000000E+00  2.319560E-02  1.675811E-03 -1.075306E-17 -1.025095E+00  0.000000E+00
  2.726330E-01  4.183341E-02  5.000000E-01  2.753879E-01  4.228269E-02  0.000000E+00  2.322038E-02  1.814546E-03 -1.151216E-17 -1.019145E+00  0.000000E+00
  2.551020E-01  4.041318E-02  5.000000E-01  2.576799E-01  4.084811E-02  0.000000E+00  2.326062E-02  1.949329E-03 -1.229293E-17 -1.014662E+00  0.000000E+00
  2.381210E-01  3.894301E-02  5.000000E-01  2.405274E-01  3.936310E-02  0.000000E+00  2.333250E-02  2.088385E-03 -1.255243E-17 -1.011064E+00  0.000000E+00
  2.217090E-01  3.742731E-02  5.000000E-01  2.239496E-01  3.783209E-02  0.000000E+00  2.343090E-02  2.236448E-03 -1.196089E-17 -1.008096E+00  0.000000E+00
  2.058840E-01  3.586865E-02  5.000000E-01  2.079648E-01  3.625769E-02  0.000000E+00  2.352797E-02  2.379383E-03 -1.149887E-17 -1.007030E+00  0.000000E+00
  1.906600E-01  3.428732E-02  5.000000E-01  1.925871E-01  3.466039E-02  0.000000E+00  2.360627E-02  2.491448E-03 -1.272387E-17 -1.010050E+00  0.000000E+00
  1.760460E-01  3.271882E-02  5.000000E-01  1.778255E-01  3.307605E-02  0.000000E+00  2.370879E-02  2.577364E-03 -1.640163E-17 -1.017251E+00  0.000000E+00
  1.620500E-01  3.117811E-02  5.000000E-01  1.636881E-01  3.151978E-02  0.000000E+00  2.389847E-02  2.669222E-03 -2.307533E-17 -1.026429E+00  0.000000E+00
  1.486750E-01  2.966363E-02  5.000000E-01  1.501781E-01  2.999000E-02  0.000000E+00  2.418556E-02  2.789413E-03 -3.247512E-17 -1.035429E+00  0.000000E+00
  1.359210E-01  2.816672E-02  5.000000E-01  1.372953E-01  2.847798E-02  0.000000E+00  2.452849E-02  2.943281E-03 -4.739526E-17 -1.043108E+00  0.000000E+00
  1.237890E-01  2.667979E-02  5.000000E-01  1.250407E-01  2.697603E-02  0.000000E+00  2.487416E-02  3.128217E-03 -7.106186E-17 -1.049188E+00  0.000000E+00
  1.122730E-01  2.519530E-02  5.000000E-01  1.134085E-01  2.547656E-02  0.000000E+00  2.518646E-02  3.339752E-03 -1.115544E-16 -1.053933E+00  0.000000E+00
  1.013710E-01  2.370971E-02  5.000000E-01  1.023964E-01  2.397596E-02  0.000000E+00  2.545077E-02  3.571902E-03 -1.828833E-16 -1.057994E+00  0.000000E+00
  9.107400E-02  2.222297E-02  5.000000E-01  9.199536E-02  2.247421E-02  0.000000E+00  2.567268E-02  3.824007E-03 -3.080358E-16 -1.061924E+00  0.000000E+00
  9.107400E-02  2.222297E-02  5.000000E-01  9.199536E-02  2.247421E-02  0.000000E+00  2.567268E-02  3.824007E-03 -3.080358E-16 -1.061924E+00  0.000000E+00
  8.137660E-02  2.073463E-02  5.000000E-01  8.220003E-02  2.097083E-02  0.000000E+00  2.585900E-02  4.094448E-03 -5.280533E-16 -1.066423E+00  0.000000E+00
  7.227050E-02  1.924857E-02  5.000000E-01  7.300197E-02  1.946976E-02  0.000000E+00  2.601223E-02  4.377405E-03 -9.172554E-16 -1.072446E+00  0.000000E+00
  6.374670E-02  1.777105E-02  5.000000E-01  6.439209E-02  1.797732E-02  0.000000E+00  2.614179E-02  4.674222E-03 -1.609491E-15 -1.080612E+00  0.000000E+00
  5.579720E-02  1.630636E-02  5.000000E-01  5.636231E-02  1.649784E-02  0.000000E+00  2.624783E-02  4.981481E-03 -2.835064E-15 -1.091780E+00  0.000000E+00
  4.841260E-02  1.486373E-02  5.000000E-01  4.890313E-02  1.504065E-02  0.000000E+00  2.632868E-02  5.294492E-03 -4.965659E-15 -1.106894E+00  0.000000E+00
  4.158390E-02  1.345154E-02  5.000000E-01  4.200547E-02  1.361419E-02  0.000000E+00  2.639006E-02  5.620339E-03 -8.520775E-15 -1.126315E+00  0.000000E+00
  3.530370E-02  1.207513E-02  5.000000E-01  3.566185E-02  1.222388E-02  0.000000E+00  2.641436E-02  5.954497E-03 -1.405970E-14 -1.150855E+00  0.000000E+00
  2.956270E-02  1.074437E-02  5.000000E-01  2.986287E-02  1.087968E-02  0.000000E+00  2.637670E-02  6.293168E-03 -2.185279E-14 -1.181170E+00  0.000000E+00
  2.435310E-02  9.466151E-03  5.000000E-01  2.460066E-02  9.588555E-03  0.000000E+00  2.624086E-02  6.649726E-03 -3.122990E-14 -1.216678E+00  0.000000E+00
  1.967110E-02  8.241418E-03  5.000000E-01  1.987138E-02  8.351453E-03  0.000000E+00  2.587799E-02  6.996505E-03 -3.990322E-14 -1.257709E+00  0.000000E+00
  1.550860E-02  7.077707E-03  5.000000E-01  1.566684E-02  7.175990E-03  0.000000E+00  2.511387E-02  7.286295E-03 -4.423497E-14 -1.304605E+00  0.000000E+00
  1.185930E-02  5.979169E-03  5.000000E-01  1.198068E-02  6.066358E-03  0.000000E+00  2.384274E-02  7.510963E-03 -4.102256E-14 -1.355571E+00  0.000000E+00
  8.724160E-03  4.942661E-03  5.000000E-01  8.813883E-03  5.019382E-03  0.000000E+00  2.215795E-02  7.688543E-03 -3.000922E-14 -1.410296E+00  0.000000E+00
  6.091130E-03  3.976955E-03  5.000000E-01  6.154263E-03  4.043924E-03  0.000000E+00  2.088428E-02  8.189298E-03 -1.580863E-14 -1.464431E+00  0.000000E+00
  3.952840E-03  3.085513E-03  5.000000E-01  3.994378E-03  3.143480E-03  0.000000E+00  2.153253E-02  1.008512E-02 -6.023186E-15 -1.500981E+00  0.000000E+00
  2.330070E-03  2.256669E-03  5.000000E-01  2.355220E-03  2.306265E-03  0.000000E+00  2.434654E-02  1.446452E-02 -4.832109E-15 -1.508159E+00  0.000000E+00
  1.198080E-03  1.509154E-03  5.000000E-01  1.211798E-03  1.551201E-03  0.000000E+00  2.739026E-02  2.148078E-02 -1.008147E-14 -1.495802E+00  0.000000E+00
  5.019560E-04  8.762559E-04  5.000000E-01  5.086442E-04  9.119112E-04  0.000000E+00  2.986790E-02  3.314687E-02 -1.767102E-14 -1.508296E+00  0.000000E+00
  1.313430E-04  3.893043E-04  5.000000E-01  1.342884E-04  4.200420E-04  0.000000E+00  3.417336E-02  6.881837E-02 -2.558276E-14 -1.549345E+00  0.000000E+00
  8.078190E-06  7.993616E-05  5.000000E-01  9.778777E-06  1.075496E-04  0.000000E+00  2.977150E-02  1.711869E-01 -3.543584E-14 -1.479034E+00  0.000000E+00
 -1.602820E-06 -2.653812E-05  5.000000E-01  0.000000E+00  0.000000E+00  0.000000E+00 -5.175442E-03  2.513813E-01 -4.589951E-14 -1.189069E+00  0.000000E+00
  9.141860E-06 -1.363911E-04  5.000000E-01  1.085319E-05 -1.109624E-04  0.000000E+00 -4.994024E-02  1.968787E-01 -5.620842E-14 -4.626617E-01  0.000000E+00